# vtk DataFile Version 4.2
vtk output
ASCII
DATASET POLYDATA
POINTS 10000 float
0.0419696 -0.0271789 0 0.0482887 -0.0242504 0 0.0469279 -0.0227714 0 
0.0439274 -0.0238867 0 0.0397659 -0.0303118 0 0.0422777 -0.0291055 0 
0.00382785 -0.0498534 0 3.58201e-07 -0.0500001 0 0.00150379 -0.0516828 0 
0.0419755 0.0271755 0 0.0439314 0.0238837 0 0.0507288 0.0351336 0 
0.0499669 -0.00191658 0 0.0496716 -0.00573479 0 0.0578462 0.00414987 0 
0.057869 0.000619684 0 0.0482145 -0.0132498 0 0.0545099 -0.00521903 0 
0.0490887 -0.00952087 0 0.057558 0.0123159 0 0.0496752 0.00573215 0 
0.0499663 0.00191393 0 0.0236112 -0.0458139 0 0.0221866 -0.0448085 0 
0.0186914 -0.0463753 0 0.0211794 -0.0474889 0 0.0150866 -0.04767 0 
0.0178391 -0.0484519 0 0.0141201 -0.0498101 0 0.0113931 -0.048685 0 
0.0099061 -0.0508369 0 0.00763289 -0.0494142 0 -0.0057391 -0.0528336 0 
-0.0029564 -0.0510882 0 -0.00661208 -0.0509424 0 -0.00382713 -0.0498534 0 
-0.00763214 -0.0494142 0 0.0287744 0.0408931 0 0.0318207 0.038571 0 
0.0340598 0.0460403 0 -0.00190296 -0.0526108 0 -0.0499626 -0.00191544 0 
-0.0499626 0.00191484 0 -0.05051 0.000469138 0 -0.0487405 0.014099 0 
-0.0482118 0.0132487 0 -0.0470561 0.0169005 0 -0.0287645 0.0408959 0 
-0.02577 0.0433559 0 -0.0286135 0.0418615 0 -0.0255494 0.0429779 0 
-0.0321114 0.0391222 0 -0.0318108 0.0385739 0 -0.0346713 -0.0360262 0 
-0.037327 -0.0332666 0 -0.0352517 -0.0355799 0 -0.0359647 0.0357406 0 
-0.0373265 0.0332658 0 -0.0346704 0.0360256 0 -0.0388786 0.0329094 0 
-0.0399972 0.0309201 0 -0.0397636 0.0303108 0 -0.0453594 0.0228171 0 
-0.0456243 0.0204531 0 -0.0439247 0.0238856 0 -0.0413815 -0.0286918 0 
-0.0394241 -0.0309746 0 -0.0419675 -0.0271787 0 -0.0397641 -0.0303115 0 
-0.043925 -0.0238862 0 -0.0456245 -0.0204537 0 -0.0452058 -0.0226498 0 
0.0516274 -0.211891 0 0.0465243 -0.209828 0 0.0407292 -0.220997 0 
0.0377879 -0.217257 0 0.0488278 -0.276456 0 0.0531585 -0.27154 0 
0.0457382 -0.275437 0 0.0522 -0.268673 0 0.0433014 -0.275 0 
0.0454818 -0.270771 0 0.0407289 -0.279003 0 0.0428458 -0.279196 0 
0.0433017 -0.225 0 0.0397996 -0.285111 0 0.0377876 -0.282743 0 
0.0345041 -0.286187 0 0.0550009 -0.232015 0 0.0485909 -0.238212 0 
0.0558263 -0.236588 0 0.0494914 -0.242884 0 0.02582 -0.294803 0 
0.0185832 -0.296418 0 0.0199354 -0.297308 0 0.0140867 -0.297975 0 
0.0229114 -0.294442 0 0.0270321 -0.292063 0 0.0263943 -0.203055 0 
0.0229117 -0.205558 0 0.0270324 -0.207937 0 0.0185835 -0.203582 0 
0.00475285 -0.299774 0 0.00154645 -0.300601 0 0.00587429 -0.300496 0 
4.33711e-08 -0.3 0 -0.00475276 -0.299774 0 -0.00669618 -0.300642 0 
-0.0270318 -0.207937 0 -0.0229111 -0.205558 0 -0.0229527 -0.19803 0 
-0.00475251 -0.200227 0 0.000342961 -0.196098 0 -0.00259657 -0.19331 0 
2.85258e-07 -0.2 0 -0.00946226 -0.200904 0 -0.0300621 -0.29149 0 
-0.0229112 -0.294442 0 -0.0270321 -0.292063 0 -0.0192628 -0.199908 0 
-0.0185829 -0.203582 0 -0.0309078 -0.289303 0 -0.0380366 -0.284663 0 
-0.0433013 -0.275 0 -0.0466514 -0.271453 0 -0.0407288 -0.279003 0 
-0.049166 -0.265479 0 -0.0530675 -0.261796 0 -0.0454814 -0.270771 0 
-0.0190025 -0.194903 0 -0.0538357 -0.241714 0 -0.0529458 -0.248092 0 
-0.0499433 -0.252379 0 -0.0494909 -0.257116 0 -0.0424103 -0.215115 0 
-0.043301 -0.225 0 -0.0407286 -0.220997 0 -0.0499433 -0.247621 0 
-0.0516518 -0.237001 0 -0.051558 -0.244214 0 -0.049491 -0.242884 0 
-0.0503584 -0.231707 0 0.205063 -0.280654 0 0.209209 -0.275854 0 
0.203019 -0.276738 0 0.211746 -0.278847 0 0.198454 -0.28154 0 
0.198861 -0.286639 0 0.20555 -0.285112 0 0.18552 -0.290135 0 
0.187468 -0.293378 0 0.192884 -0.289573 0 0.179622 -0.292749 0 
0.173298 -0.292556 0 0.170528 -0.297079 0 0.176392 -0.297009 0 
0.161638 -0.295556 0 0.167543 -0.294408 0 0.164235 -0.291397 0 
0.16903 -0.28971 0 0.164581 -0.298257 0 0.165651 -0.301807 0 
0.171392 -0.300795 0 0.169365 -0.305267 0 0.177258 -0.301922 0 
0.18355 -0.297807 0 0.180626 -0.304597 0 0.188821 -0.302098 0 
0.197446 -0.299237 0 0.191917 -0.296088 0 0.198632 -0.292787 0 
0.205428 -0.295561 0 0.198941 -0.305096 0 0.207256 -0.300956 0 
0.212703 -0.294185 0 0.220057 -0.298746 0 0.214275 -0.305401 0 
0.204924 -0.308226 0 0.211841 -0.312985 0 0.22364 -0.306057 0 
0.224245 -0.313159 0 0.214651 -0.320644 0 0.239071 -0.319032 0 
0.236868 -0.311359 0 0.225118 -0.321732 0 0.254108 -0.311259 0 
0.245583 -0.302478 0 0.251968 -0.292613 0 0.258621 -0.300509 0 
0.240293 -0.296455 0 0.241695 -0.28758 0 0.260722 -0.272307 0 
0.252914 -0.282786 0 0.266976 -0.278048 0 0.265172 -0.289322 0 
0.245225 -0.264751 0 0.241763 -0.271496 0 0.250744 -0.273463 0 
0.240777 -0.278754 0 0.233667 -0.273089 0 0.229801 -0.279701 0 
0.228182 -0.272166 0 0.223009 -0.277611 0 0.214067 -0.283134 0 
0.217486 -0.278863 0 0.204777 -0.290615 0 0.211453 -0.287663 0 
0.207641 -0.272071 0 0.213163 -0.269957 0 0.208183 -0.266952 0 
0.203493 -0.269923 0 0.20734 -0.260955 0 0.212341 -0.263028 0 
0.202048 -0.265593 0 0.201259 -0.25911 0 0.19828 -0.263311 0 
0.193757 -0.261592 0 0.195586 -0.257277 0 0.190506 -0.25702 0 
0.18935 -0.260962 0 0.199046 -0.248722 0 0.193743 -0.25282 0 
0.19921 -0.253465 0 0.18776 -0.254559 0 0.191026 -0.250473 0 
0.185785 -0.251845 0 0.189007 -0.247383 0 0.182536 -0.250027 0 
0.186124 -0.244851 0 0.184288 -0.24092 0 0.191884 -0.236748 0 
0.18488 -0.236303 0 0.197945 -0.232098 0 0.190739 -0.230172 0 
0.184689 -0.228027 0 0.18105 -0.234582 0 0.210246 -0.220089 0 
0.210798 -0.213119 0 0.203173 -0.218703 0 0.195792 -0.216608 0 
0.203755 -0.212366 0 0.220662 -0.211746 0 0.216392 -0.217967 0 
0.223257 -0.217019 0 0.230781 -0.213026 0 0.225859 -0.222767 0 
0.225094 -0.231539 0 0.231477 -0.225611 0 0.222148 -0.238645 0 
0.218037 -0.232873 0 0.213518 -0.238312 0 0.204821 -0.249272 0 
0.19739 -0.269797 0 0.200209 -0.273673 0 0.193937 -0.266575 0 
0.19109 -0.270537 0 0.217725 -0.273073 0 0.217746 -0.265453 0 
0.217959 -0.26028 0 0.221684 -0.254611 0 0.21478 -0.256874 0 
0.216536 -0.251678 0 0.226261 -0.24701 0 0.22746 -0.252355 0 
0.218751 -0.246063 0 0.211639 -0.248758 0 0.207991 -0.243589 0 
0.215022 -0.242804 0 0.225947 -0.268607 0 0.222439 -0.266949 0 
0.231942 -0.261353 0 0.235925 -0.265933 0 0.240169 -0.257597 0 
0.232155 -0.25413 0 0.24154 -0.250313 0 0.250993 -0.24956 0 
0.250093 -0.257615 0 0.245947 -0.242855 0 0.255496 -0.240068 0 
0.254524 -0.234118 0 0.266856 -0.235666 0 0.263988 -0.227933 0 
0.261691 -0.244873 0 0.270857 -0.246428 0 0.277871 -0.231722 0 
0.279005 -0.251794 0 0.280566 -0.23919 0 0.290381 -0.241605 0 
0.287655 -0.256224 0 0.301462 -0.245526 0 0.299392 -0.25856 0 
0.308918 -0.26488 0 0.316656 -0.25007 0 0.313138 -0.237157 0 
0.317799 -0.271521 0 0.329314 -0.255473 0 0.33123 -0.274106 0 
0.346682 -0.264822 0 0.349775 -0.249117 0 0.340844 -0.238629 0 
0.375527 -0.240072 0 0.357917 -0.236457 0 0.362981 -0.25587 0 
0.364944 -0.225089 0 0.382363 -0.217069 0 0.353223 -0.216654 0 
0.370333 -0.208827 0 0.38575 -0.197181 0 0.397823 -0.205788 0 
0.363061 -0.199676 0 0.375594 -0.185305 0 0.39576 -0.18106 0 
0.382248 -0.169865 0 0.400681 -0.163895 0 0.38776 -0.151037 0 
0.406042 -0.147442 0 0.388774 -0.131415 0 0.401465 -0.134641 0 
0.420078 -0.13052 0 0.410847 -0.117309 0 0.440514 -0.0938828 0 
0.422209 -0.100769 0 0.433872 -0.113887 0 0.414326 -0.0806473 0 
0.428071 -0.082436 0 0.401399 -0.103439 0 0.395986 -0.0902114 0 
0.379211 -0.108853 0 0.379812 -0.0957969 0 0.3614 -0.106216 0 
0.363041 -0.117054 0 0.346161 -0.116657 0 0.329324 -0.118494 0 
0.341194 -0.130173 0 0.337762 -0.10745 0 0.326092 -0.130694 0 
0.313645 -0.123506 0 0.310149 -0.135127 0 0.315805 -0.144168 0 
0.301575 -0.146527 0 0.304828 -0.155953 0 0.291358 -0.153773 0 
0.294559 -0.166366 0 0.284867 -0.164614 0 0.30682 -0.164965 0 
0.284132 -0.174502 0 0.288301 -0.179851 0 0.270622 -0.167523 0 
0.275781 -0.173302 0 0.274189 -0.183959 0 0.259759 -0.171904 0 
0.266617 -0.177603 0 0.253652 -0.179601 0 0.261392 -0.185918 0 
0.244273 -0.185407 0 0.244856 -0.17651 0 0.234891 -0.190169 0 
0.234821 -0.183715 0 0.238086 -0.195318 0 0.226188 -0.193118 0 
0.226575 -0.184437 0 0.227316 -0.199421 0 0.211279 -0.197445 0 
0.216839 -0.200164 0 0.219704 -0.191633 0 0.224486 -0.205839 0 
0.215332 -0.206983 0 0.224531 -0.260551 0 0.228296 -0.241018 0 
0.2375 -0.238406 0 0.231135 -0.233846 0 0.237732 -0.230735 0 
0.245841 -0.235513 0 0.246236 -0.227067 0 0.239859 -0.222908 0 
0.254176 -0.227197 0 0.274416 -0.223694 0 0.268655 -0.217635 0 
0.285564 -0.219646 0 0.296863 -0.208421 0 0.285729 -0.211642 0 
0.286531 -0.202928 0 0.296564 -0.195761 0 0.287847 -0.193431 0 
0.281399 -0.18979 0 0.29435 -0.184963 0 0.209964 -0.255512 0 
0.205287 -0.254375 0 0.298074 -0.276541 0 0.279444 -0.278234 0 
0.280285 -0.288285 0 0.271189 -0.299442 0 0.289451 -0.269664 0 
0.276 -0.26654 0 0.26764 -0.260002 0 0.260336 -0.254512 0 
0.255969 -0.264305 0 0.235992 -0.245591 0 0.312495 -0.283838 0 
0.296061 -0.287964 0 0.305062 -0.297276 0 0.28516 -0.297477 0 
0.271374 -0.308395 0 0.249092 -0.322424 0 0.228279 -0.329939 0 
0.214719 -0.33268 0 0.197906 -0.326364 0 0.207313 -0.328723 0 
0.205165 -0.320649 0 0.186923 -0.324594 0 0.194115 -0.3205 0 
0.187842 -0.316969 0 0.178949 -0.322779 0 0.190912 -0.307156 0 
0.195151 -0.312263 0 0.183297 -0.313512 0 0.346805 -0.281164 0 
0.323844 -0.292844 0 0.291405 -0.306051 0 0.28993 -0.324027 0 
0.306873 -0.309402 0 0.301748 -0.320629 0 0.283546 -0.315974 0 
0.257916 -0.351439 0 0.270921 -0.3526 0 0.267971 -0.341387 0 
0.284577 -0.352049 0 0.281564 -0.342304 0 0.257058 -0.36135 0 
0.242161 -0.359207 0 0.249321 -0.372016 0 0.233668 -0.37145 0 
0.266313 -0.368906 0 0.268993 -0.382808 0 0.250149 -0.382445 0 
0.254833 -0.390766 0 0.23182 -0.382315 0 0.233784 -0.396253 0 
0.24936 -0.403065 0 0.234395 -0.413182 0 0.216528 -0.407028 0 
0.213716 -0.428511 0 0.230689 -0.427426 0 0.197931 -0.413815 0 
0.196493 -0.429753 0 0.193663 -0.446816 0 0.178941 -0.43737 0 
0.168242 -0.452075 0 0.188548 -0.463087 0 0.146891 -0.448277 0 
0.138994 -0.462347 0 0.165954 -0.471656 0 0.122402 -0.447814 0 
0.103308 -0.450142 0 0.114248 -0.464777 0 0.126589 -0.416964 0 
[...]
POINT_DATA 10000
FIELD FieldData 1
circles 1 10000 double
-10 -10 -10 -10 -10 -10 -10 -10 -10 
-10 -10 -10 -10 -10 -10 -10 -10 -10 
-10 -10 -10 -10 -10 -10 -10 -10 -10 
-10 -10 -10 -10 -10 -10 -10 -10 -10 
-10 -10 -10 -10 -10 -10 -10 -10 24 
-10 -10 -10 -10 -10 -10 -10 -10 -10 
-10 -10 -10 -10 -10 -10 -10 -10 -10 
-10 -10 -10 -10 -10 -10 -10 -10 -10 
7 7 -10 -10 -10 -10 -10 -10 -10 
-10 -10 -10 7 28 -10 -10 7 7 
7 -10 -10 -10 -10 -10 -10 -10 -10 
-10 -10 -10 -10 -10 -10 -10 -10 -10 
-10 -10 -10 -10 -10 -10 -10 -10 14 
-10 -10 -10 -10 -10 -10 -10 -10 -10 
-10 -10 -10 -10 49 49 -10 -10 47 
-10 -10 -10 -10 -10 -10 -10 16 16 
16 16 16 16 16 16 -10 16 -10 
-10 -10 -10 -10 -10 -10 -10 -10 5 
-10 5 -10 -10 -10 -10 -10 -10 -10 
-10 -10 -10 -10 -10 -10 -10 -10 -10 
-10 -10 -10 -10 -10 48 -10 48 48 
-10 -10 48 48 48 48 -10 -10 48 
-10 -10 -10 -10 -10 16 16 16 -10 
16 16 16 16 16 16 16 16 16 
16 16 16 16 16 16 16 16 16 
16 16 16 16 -10 -10 -10 -10 -10 
-10 -10 -10 -10 -10 -10 -10 -10 -10 
-10 -10 -10 -10 -10 16 -10 16 16 
16 16 16 16 16 16 16 16 16 
16 16 16 16 16 16 16 16 16 
-10 -10 -10 16 -10 48 -10 -10 48 
-10 48 48 48 48 48 48 48 48 
48 48 48 48 48 48 48 48 48 
48 48 48 48 48 48 48 48 48 
48 48 48 48 48 48 48 -10 -10 
-10 -10 -10 -10 -10 -10 46 -10 46 
46 46 46 46 46 46 46 46 46 
-10 46 -10 -10 -10 -10 -10 -10 -10 
-10 -10 -10 -10 -10 35 -10 -10 35 
35 35 35 35 35 35 35 35 35 
35 35 35 35 35 35 35 16 -10 
-10 -10 -10 -10 -10 -10 -10 48 48 
48 48 48 48 48 -10 -10 -10 16 
16 48 48 48 48 48 48 48 48 
48 -10 48 48 48 48 48 -10 -10 
-10 -10 -10 -10 -10 -10 -10 5 -10 
-10 -10 48 48 48 -10 48 48 48 
-10 -10 -10 -10 -10 -10 -10 -10 -10 
-10 -10 -10 -10 -10 -10 -10 -10 -10 
-10 -10 -10 -10 -10 -10 -10 -10 -10 
-10 -10 41 41 41 41 41 41 41 
-10 -10 -10 -10 -10 -10 -10 -10 -10 
-10 -10 -10 -10 -10 -10 -10 -10 -10 
-10 -10 -10 41 48 48 48 48 -10 
-10 -10 -10 -10 -10 -10 -10 -10 -10 
-10 -10 -10 46 46 46 46 46 46 
46 46 46 46 46 46 -10 -10 -10 
-10 -10 46 -10 -10 -10 -10 -10 -10 
-10 39 -10 39 39 39 39 39 39 
39 39 39 39 39 39 39 39 39 
39 39 39 39 39 39 39 39 -10 
39 -10 -10 -10 -10 -10 -10 -10 -10 
-10 -10 -10 33 33 33 33 33 33 
-10 33 33 33 33 33 33 33 33 
33 33 -10 -10 -10 -10 -10 -10 -10 
-10 -10 -10 -10 -10 -10 24 24 24 
24 24 24 24 24 24 24 24 24 
24 24 24 24 24 24 24 24 24 
24 24 -10 24 -10 -10 -10 -10 -10 
-10 -10 -10 -10 -10 -10 -10 -10 -10 
-10 -10 -10 -10 -10 37 37 -10 -10 
37 -10 37 37 37 37 37 37 37 
37 37 37 37 37 -10 48 48 48 
48 48 -10 -10 48 48 48 48 48 
48 48 48 48 48 48 48 48 48 
-10 48 -10 -10 -10 48 -10 48 -10 
-10 -10 -10 -10 -10 -10 -10 -10 -10 
-10 -10 -10 -10 -10 46 46 16 16 
16 16 16 16 16 16 -10 -10 -10 
-10 -10 -10 -10 -10 -10 -10 -10 -10 
-10 5 5 5 5 5 5 5 5 
5 -10 5 -10 5 -10 -10 5 -10 
-10 -10 -10 -10 -10 -10 -10 -10 -10 
-10 -10 -10 -10 -10 -10 -10 -10 -10 
-10 -10 -10 -10 -10 -10 -10 -10 -10 
28 -10 28 -10 28 28 28 28 -10 
-10 -10 -10 -10 -10 -10 -10 -10 -10 
-10 -10 -10 -10 -10 -10 -10 -10 -10 
-10 -10 7 -10 -10 -10 -10 36 36 
-10 -10 36 -10 -10 -10 -10 -10 -10 
-10 -10 -10 -10 14 14 14 14 14 
14 14 14 14 14 14 14 14 14 
14 14 14 14 14 14 14 14 14 
14 14 14 14 14 14 14 14 14 
14 14 14 14 -10 -10 -10 21 -10 
-10 -10 21 21 21 21 21 21 21 
21 21 21 21 21 21 21 21 21 
21 21 21 21 21 21 21 21 -10 
21 -10 -10 -10 -10 -10 2 2 2 
2 2 2 2 2 2 2 2 2 
2 2 2 2 2 2 2 2 -10 
-10 -10 -10 -10 -10 -10 -10 -10 41 
41 -10 -10 41 41 41 41 41 41 
41 41 41 41 41 41 41 41 41 
41 41 41 41 41 41 41 41 41 
41 41 -10 -10 -10 -10 -10 -10 -10 
5 -10 -10 -10 5 5 5 5 5 
5 5 5 5 5 5 5 5 5 
5 5 5 5 5 5 5 5 5 
5 5 16 16 16 16 16 16 16 
16 16 16 16 16 16 16 16 16 
16 16 16 16 16 -10 16 16 16 
-10 -10 -10 -10 -10 -10 -10 -10 -10 
-10 -10 -10 -10 -10 -10 -10 -10 -10 
-10 -10 -10 -10 -10 -10 -10 16 16 
16 16 16 16 -10 16 16 16 -10 
-10 -10 16 16 16 16 16 16 16 
16 16 -10 -10 -10 -10 -10 -10 -10 
-10 -10 -10 -10 16 -10 -10 -10 -10 
-10 48 -10 -10 48 48 48 48 -10 
48 48 48 -10 -10 48 48 -10 48 
48 48 48 48 48 -10 -10 -10 -10 
-10 -10 -10 -10 -10 -10 35 -10 -10 
-10 -10 26 26 26 26 26 26 26 
26 26 26 26 26 26 26 26 26 
26 26 26 26 26 26 26 26 -10 
-10 26 -10 -10 -10 -10 -10 -10 -10 
-10 -10 -10 -10 -10 -10 -10 27 27 
-10 27 27 27 27 27 27 27 27 
27 27 27 27 27 27 27 27 -10 
27 27 27 -10 27 -10 -10 -10 -10 
-10 -10 -10 13 13 13 13 -10 13 
13 13 13 13 13 13 13 13 -10 
-10 13 -10 -10 -10 -10 -10 -10 -10 
-10 40 40 40 40 40 40 40 40 
40 40 40 40 40 40 40 40 40 
40 40 40 40 40 40 40 40 40 
40 -10 40 -10 -10 -10 -10 -10 44 
-10 44 44 44 44 -10 44 44 44 
44 44 44 -10 44 44 44 44 44 
44 44 44 44 44 -10 44 -10 -10 
-10 31 31 -10 -10 -10 -10 -10 -10 
-10 -10 -10 -10 -10 -10 -10 32 -10 
-10 32 32 -10 -10 32 32 32 32 
32 -10 32 -10 -10 -10 -10 -10 -10 
-10 -10 -10 -10 -10 -10 -10 -10 -10 
-10 -10 -10 -10 -10 -10 1 1 -10 
1 1 1 1 1 1 1 1 1 
1 1 1 1 1 1 1 1 1 
1 1 -10 -10 -10 -10 -10 -10 -10 
-10 -10 -10 -10 -10 -10 -10 15 15 
15 15 15 15 15 15 15 15 15 
15 15 15 15 15 15 15 -10 -10 
-10 -10 -10 34 34 34 34 34 34 
34 34 34 34 34 34 34 34 34 
-10 -10 -10 -10 34 -10 -10 -10 -10 
-10 -10 -10 -10 -10 -10 -10 -10 -10 
-10 -10 -10 -10 -10 -10 -10 -10 -10 
-10 -10 25 25 -10 25 25 25 25 
25 25 25 25 25 25 -10 -10 25 
-10 -10 -10 9 9 9 9 -10 9 
9 9 9 9 9 9 9 9 9 
9 9 -10 -10 -10 9 9 9 -10 
-10 -10 -10 -10 -10 9 9 -10 -10 
-10 -10 -10 -10 -10 -10 -10 -10 -10 
-10 -10 -10 -10 -10 -10 -10 -10 -10 
-10 -10 -10 -10 -10 -10 22 -10 22 
-10 22 -10 22 -10 22 22 22 22 
22 22 22 22 22 22 22 22 22 
22 -10 -10 -10 -10 -10 -10 -10 -10 
13 13 13 13 13 13 13 13 13 
13 -10 -10 -10 -10 -10 -10 -10 -10 
-10 46 46 46 46 46 46 46 46 
46 46 46 46 46 46 46 46 46 
46 46 46 46 46 46 46 -10 -10 
-10 -10 -10 -10 -10 -10 -10 -10 -10 
17 17 17 17 17 17 17 17 17 
17 17 17 17 17 17 17 17 17 
17 17 17 17 17 -10 17 -10 17 
-10 -10 -10 -10 -10 -10 -10 -10 -10 
-10 -10 -10 -10 -10 7 -10 -10 7 
7 7 -10 -10 7 -10 -10 36 -10 
36 36 36 36 36 36 36 36 36 
36 36 36 36 36 36 36 36 36 
36 36 36 -10 -10 -10 -10 -10 -10 
-10 -10 -10 -10 -10 -10 -10 -10 -10 
-10 -10 -10 -10 -10 -10 -10 -10 -10 
36 36 -10 -10 36 36 36 36 -10 
-10 36 -10 -10 7 7 -10 -10 -10 
-10 -10 -10 16 16 16 16 -10 16 
-10 -10 -10 -10 -10 -10 -10 -10 -10 
-10 -10 -10 -10 -10 -10 -10 -10 -10 
-10 -10 -10 -10 -10 -10 -10 -10 -10 
-10 -10 -10 -10 -10 -10 -10 -10 -10 
-10 -10 -10 -10 39 39 39 39 39 
39 39 39 39 39 39 39 39 39 
39 46 46 46 46 46 46 46 46 
46 46 46 -10 46 46 -10 -10 -10 
-10 46 -10 -10 -10 -10 -10 -10 -10 
17 17 17 17 17 17 17 17 46 
-10 -10 -10 35 35 35 35 35 46 
46 46 46 46 46 46 46 46 46 
46 46 46 46 46 46 46 46 46 
46 -10 -10 -10 -10 -10 -10 -10 -10 
-10 -10 -10 -10 -10 -10 39 39 39 
39 -10 39 39 39 39 46 46 46 
46 46 46 46 5 5 5 -10 16 
-10 16 -10 -10 -10 -10 -10 -10 -10 
-10 5 -10 -10 -10 -10 -10 -10 -10 
-10 -10 -10 -10 38 38 38 38 38 
38 38 38 38 38 38 38 38 38 
38 38 38 38 38 38 38 38 38 
38 38 38 38 38 38 38 38 -10 
-10 -10 -10 -10 -10 -10 -10 -10 -10 
-10 -10 -10 35 -10 -10 -10 35 38 
-10 38 38 38 38 38 38 38 38 
38 38 38 38 38 -10 -10 -10 -10 
-10 -10 -10 -10 35 35 35 -10 -10 
35 35 35 35 35 35 35 35 35 
35 35 35 35 35 35 35 35 35 
35 35 35 35 -10 -10 -10 -10 -10 
17 17 17 17 17 17 17 17 17 
17 17 17 17 17 17 17 -10 -10 
-10 -10 -10 35 35 46 46 46 46 
46 46 46 46 46 46 46 -10 -10 
-10 -10 17 17 17 17 17 17 17 
17 17 17 17 17 17 17 17 17 
-10 18 18 18 18 18 18 18 18 
18 18 18 18 18 18 18 18 18 
18 18 18 18 18 18 18 18 18 
18 18 18 -10 18 18 -10 -10 46 
46 -10 -10 -10 46 46 -10 46 46 
46 -10 46 -10 -10 -10 -10 46 46 
46 46 46 -10 -10 -10 -10 -10 46 
-10 -10 -10 -10 -10 -10 -10 -10 -10 
-10 -10 -10 -10 -10 -10 -10 -10 -10 
5 5 5 5 5 5 5 5 5 
5 5 5 5 5 5 5 5 5 
5 5 5 5 -10 5 -10 5 5 
-10 -10 -10 -10 41 41 41 41 41 
41 41 41 41 41 41 41 41 41 
41 41 41 41 41 41 -10 -10 -10 
-10 -10 -10 -10 -10 -10 -10 -10 -10 
38 38 38 -10 38 38 38 38 38 
38 -10 -10 -10 -10 35 35 35 38 
38 38 38 38 38 38 38 38 38 
35 35 35 35 35 35 35 35 35 
35 35 35 35 35 35 35 35 -10 
-10 -10 -10 -10 -10 -10 7 -10 7 
7 7 7 7 7 7 7 7 7 
7 7 7 7 7 7 7 7 7 
7 7 35 35 35 35 35 35 35 
-10 -10 -10 38 35 35 -10 -10 -10 
-10 -10 -10 -10 -10 17 -10 -10 17 
17 17 17 17 17 -10 -10 5 5 
5 5 5 5 5 5 5 5 5 
5 5 5 5 5 5 5 -10 41 
41 41 41 41 41 41 41 41 41 
41 -10 -10 -10 -10 -10 38 38 38 
38 38 38 -10 -10 -10 38 38 35 
35 35 35 35 35 35 35 35 35 
35 35 35 35 35 35 35 35 35 
35 35 35 -10 -10 -10 -10 -10 -10 
-10 -10 -10 -10 -10 -10 -10 35 -10 
35 35 -10 -10 -10 -10 -10 -10 -10 
-10 -10 39 39 39 -10 -10 -10 -10 
-10 -10 -10 -10 17 -10 17 17 17 
17 17 17 18 17 18 18 -10 18 
-10 -10 18 18 -10 -10 -10 18 -10 
-10 18 -10 18 18 18 18 18 -10 
18 -10 -10 -10 -10 -10 -10 -10 -10 
39 39 39 39 39 39 5 5 -10 
-10 -10 -10 38 38 38 35 35 35 
35 35 35 35 -10 -10 35 35 35 
-10 -10 35 35 -10 -10 -10 -10 17 
17 17 -10 17 17 17 17 17 -10 
-10 -10 -10 -10 -10 17 -10 -10 5 
5 5 5 5 5 5 5 -10 -10 
-10 -10 -10 -10 38 38 38 -10 38 
-10 38 38 38 38 38 38 38 38 
38 -10 35 35 -10 -10 -10 -10 39 
39 39 39 39 39 39 39 39 39 
-10 -10 -10 -10 -10 -10 17 39 39 
39 39 39 5 5 5 5 5 5 
5 -10 5 -10 -10 5 5 5 5 
5 -10 -10 -10 -10 -10 -10 -10 -10 
-10 28 -10 -10 28 28 28 28 28 
28 28 28 28 28 28 28 28 -10 
-10 -10 -10 -10 -10 -10 -10 -10 -10 
-10 -10 -10 38 38 38 38 38 38 
38 38 38 38 38 38 38 -10 38 
38 -10 -10 -10 -10 -10 -10 -10 -10 
-10 -10 7 7 7 -10 7 7 7 
7 -10 -10 -10 -10 38 38 38 -10 
-10 38 -10 7 7 -10 -10 -10 7 
-10 -10 -10 -10 35 -10 17 -10 -10 
-10 -10 -10 -10 26 26 26 26 26 
-10 26 26 26 26 26 26 26 26 
26 26 26 26 26 26 26 26 -10 
-10 -10 -10 -10 -10 -10 -10 -10 -10 
-10 -10 -10 -10 33 33 33 33 33 
33 33 33 -10 33 33 33 33 33 
33 -10 -10 27 -10 -10 -10 -10 -10 
-10 -10 -10 -10 -10 -10 -10 -10 -10 
39 39 -10 -10 -10 -10 -10 -10 -10 
-10 -10 -10 -10 -10 -10 -10 -10 -10 
-10 41 41 5 41 5 5 5 5 
5 5 -10 -10 41 41 -10 41 41 
-10 38 38 38 38 38 -10 -10 -10 
-10 -10 -10 -10 38 38 38 -10 -10 
-10 -10 -10 -10 -10 -10 39 39 -10 
-10 -10 39 39 41 41 41 41 41 
41 -10 -10 41 41 -10 41 41 41 
41 41 41 41 41 41 41 41 -10 
-10 -10 -10 -10 28 28 28 28 28 
28 28 28 28 28 28 -10 -10 21 
21 21 21 21 21 21 21 21 21 
21 21 21 21 21 21 21 21 21 
41 41 -10 -10 28 28 28 28 28 
28 28 28 28 -10 -10 -10 -10 -10 
-10 38 -10 -10 -10 -10 -10 38 -10 
-10 -10 7 7 7 7 7 7 7 
7 7 7 7 7 7 7 7 7 
7 7 7 7 7 7 7 7 -10 
-10 -10 7 -10 -10 -10 -10 -10 -10 
-10 17 17 17 17 17 17 17 17 
17 17 17 17 17 17 -10 -10 17 
17 17 18 17 18 18 18 18 -10 
-10 -10 -10 -10 -10 39 -10 -10 -10 
39 39 39 41 41 -10 -10 -10 -10 
-10 28 -10 -10 -10 -10 -10 41 28 
28 28 28 28 28 28 28 28 28 
28 28 28 28 28 28 28 28 28 
28 28 28 28 28 28 28 28 21 
21 21 21 -10 7 7 7 7 7 
7 7 7 7 7 7 7 7 7 
7 -10 17 17 17 -10 -10 -10 -10 
-10 -10 26 26 -10 -10 -10 -10 -10 
26 -10 39 -10 39 -10 -10 26 26 
26 26 39 39 -10 -10 39 39 39 
39 39 39 39 39 39 39 39 39 
-10 -10 -10 -10 -10 -10 -10 33 33 
33 33 33 33 33 33 33 33 33 
33 33 33 -10 -10 -10 -10 -10 -10 
-10 -10 39 39 39 39 39 39 26 
39 39 39 39 39 39 -10 -10 -10 
-10 -10 -10 -10 -10 -10 -10 -10 -10 
26 26 26 26 -10 -10 -10 -10 -10 
-10 -10 -10 -10 -10 -10 21 21 21 
21 21 21 21 21 21 21 21 21 
21 21 21 21 21 -10 -10 28 28 
28 28 28 -10 -10 -10 -10 -10 -10 
-10 -10 -10 -10 -10 -10 -10 7 7 
7 7 7 -10 17 17 -10 -10 -10 
18 18 18 18 18 18 18 18 18 
18 -10 -10 -10 -10 -10 -10 -10 39 
-10 -10 -10 -10 -10 39 39 -10 -10 
-10 -10 -10 33 33 33 33 33 33 
33 33 33 33 33 -10 26 26 26 
26 26 26 26 26 26 26 26 26 
26 26 26 26 26 26 -10 -10 26 
26 26 26 26 26 -10 -10 -10 41 
41 41 28 28 28 28 28 28 28 
28 28 28 28 28 28 28 28 28 
28 28 28 -10 -10 -10 -10 -10 -10 
18 -10 -10 18 18 -10 -10 18 18 
18 -10 -10 -10 -10 -10 -10 -10 -10 
-10 -10 -10 -10 -10 -10 -10 -10 -10 
-10 11 -10 11 11 11 11 11 11 
11 11 11 11 11 11 11 11 11 
11 11 11 11 11 11 11 11 11 
11 -10 -10 -10 -10 -10 -10 -10 -10 
-10 -10 -10 -10 -10 -10 -10 18 18 
18 18 -10 -10 -10 -10 -10 -10 -10 
-10 26 26 26 26 26 26 26 26 
26 26 26 26 26 26 26 26 26 
26 26 26 -10 -10 -10 26 -10 -10 
-10 26 -10 -10 26 -10 -10 26 -10 
26 26 26 26 26 26 26 26 26 
-10 -10 -10 -10 -10 33 33 33 33 
33 33 33 33 33 33 33 33 33 
33 26 -10 -10 -10 -10 -10 -10 -10 
-10 -10 -10 -10 -10 -10 -10 -10 34 
-10 34 34 34 34 34 34 34 34 
34 34 34 34 34 34 34 34 34 
34 34 34 34 34 34 34 -10 34 
34 34 34 -10 34 -10 -10 -10 -10 
-10 27 -10 -10 27 27 27 27 27 
-10 -10 -10 43 -10 -10 -10 -10 -10 
-10 -10 -10 -10 -10 -10 -10 -10 -10 
-10 -10 -10 -10 -10 -10 -10 -10 -10 
-10 -10 -10 -10 -10 43 23 -10 43 
23 43 23 43 23 23 43 43 43 
43 43 43 43 43 43 43 43 43 
43 43 43 43 43 43 43 43 43 
43 43 -10 -10 -10 -10 -10 -10 -10 
-10 -10 -10 -10 -10 -10 -10 -10 -10 
-10 23 23 23 23 23 23 23 23 
23 23 23 23 23 23 23 23 23 
23 23 23 23 23 23 23 -10 -10 
-10 -10 -10 -10 -10 -10 -10 -10 -10 
-10 -10 -10 -10 -10 -10 -10 -10 -10 
-10 -10 -10 23 -10 23 23 23 23 
23 23 23 23 43 43 43 43 43 
43 43 43 43 43 43 43 -10 -10 
43 43 -10 -10 -10 43 -10 -10 -10 
-10 -10 43 43 43 43 43 43 43 
43 43 43 43 43 43 43 43 -10 
43 43 41 41 41 41 41 41 41 
-10 41 41 -10 -10 -10 -10 21 41 
41 41 41 21 -10 -10 41 21 -10 
-10 -10 -10 -10 -10 -10 -10 -10 -10 
-10 2 -10 -10 -10 2 2 2 -10 
41 -10 41 -10 41 41 -10 -10 41 
-10 28 -10 -10 7 7 7 7 7 
7 7 7 7 7 7 7 7 7 
7 7 7 7 -10 -10 -10 -10 -10 
-10 -10 -10 -10 36 36 36 36 -10 
36 36 -10 -10 36 -10 -10 -10 -10 
-10 -10 -10 -10 -10 -10 18 -10 -10 
-10 -10 -10 -10 -10 -10 -10 -10 -10 
-10 -10 -10 -10 -10 -10 -10 -10 -10 
-10 -10 -10 -10 -10 -10 -10 -10 29 
-10 -10 -10 -10 -10 -10 -10 -10 -10 
-10 -10 11 -10 11 11 11 11 -10 
-10 -10 -10 -10 -10 -10 -10 -10 -10 
-10 -10 -10 -10 -10 18 -10 -10 18 
-10 -10 -10 18 18 18 18 18 -10 
18 -10 -10 -10 -10 -10 -10 -10 -10 
-10 -10 -10 15 -10 -10 -10 15 15 
15 15 15 15 15 15 15 15 15 
15 15 15 15 15 15 15 15 15 
15 15 15 15 15 15 15 15 15 
15 -10 -10 15 -10 -10 -10 -10 -10 
-10 -10 -10 -10 -10 1 1 1 1 
1 1 1 1 1 1 1 1 1 
1 1 -10 1 1 -10 -10 1 -10 
-10 -10 -10 -10 -10 -10 -10 -10 -10 
-10 -10 -10 3 -10 3 3 3 3 
3 3 3 3 3 3 3 3 3 
3 3 3 3 3 3 3 3 3 
-10 3 -10 -10 -10 -10 -10 -10 -10 
-10 -10 -10 -10 -10 -10 -10 -10 -10 
-10 -10 -10 -10 -10 -10 -10 -10 -10 
-10 -10 8 -10 -10 8 8 8 8 
8 8 8 8 8 8 -10 8 8 
8 8 -10 -10 8 8 8 -10 -10 
-10 -10 -10 -10 -10 -10 -10 -10 -10 
-10 -10 -10 -10 -10 30 30 -10 -10 
-10 30 30 -10 30 30 30 -10 -10 
30 30 -10 -10 30 -10 -10 -10 -10 
-10 -10 12 -10 -10 -10 12 12 12 
12 12 12 12 12 12 12 12 12 
12 12 12 12 12 12 12 12 12 
12 12 12 12 12 12 -10 12 -10 
37 37 -10 37 -10 37 37 37 37 
37 -10 -10 -10 -10 -10 -10 -10 -10 
-10 -10 -10 33 33 33 33 33 33 
33 33 33 33 33 33 33 33 33 
33 33 33 33 33 33 33 33 33 
33 33 -10 -10 -10 33 -10 -10 -10 
-10 -10 -10 -10 -10 -10 -10 -10 -10 
-10 -10 -10 -10 -10 -10 34 34 -10 
-10 -10 -10 -10 -10 43 43 -10 43 
-10 43 43 -10 -10 43 43 43 43 
-10 -10 -10 -10 -10 43 43 43 43 
43 43 43 43 43 43 43 43 43 
43 43 43 43 43 43 -10 43 -10 
-10 -10 23 23 23 23 -10 -10 -10 
-10 -10 -10 -10 -10 -10 23 43 43 
-10 43 43 43 43 -10 43 43 -10 
-10 21 21 -10 21 21 21 21 21 
21 21 -10 -10 -10 2 2 2 2 
-10 28 28 28 28 28 28 28 28 
28 28 28 28 -10 28 -10 7 7 
-10 -10 -10 36 36 -10 36 36 36 
36 36 36 36 36 36 36 36 36 
36 36 36 36 36 36 -10 36 -10 
36 36 36 36 36 36 36 36 18 
18 18 18 18 18 18 18 18 18 
18 18 18 18 18 18 18 18 18 
18 18 18 18 18 -10 -10 -10 -10 
-10 -10 -10 -10 -10 -10 18 18 18 
18 18 18 18 -10 -10 -10 -10 -10 
-10 -10 -10 -10 15 15 15 15 15 
15 15 15 15 -10 -10 -10 -10 -10 
-10 -10 -10 -10 -10 -10 -10 1 -10 
1 1 -10 15 15 15 15 15 15 
15 15 15 15 15 15 15 15 15 
15 15 15 -10 -10 -10 -10 -10 -10 
-10 -10 -10 -10 33 33 -10 33 33 
33 33 33 33 33 33 33 26 -10 
-10 -10 -10 -10 -10 -10 -10 -10 -10 
-10 -10 15 15 -10 15 15 15 34 
-10 34 34 34 34 34 34 34 34 
34 34 34 34 34 34 34 34 34 
34 34 34 34 34 34 -10 -10 -10 
34 34 34 -10 -10 34 -10 -10 -10 
-10 -10 -10 -10 -10 -10 -10 -10 -10 
-10 -10 -10 -10 -10 -10 -10 -10 34 
34 34 34 -10 34 34 34 34 34 
-10 -10 43 -10 43 -10 43 -10 -10 
-10 -10 -10 -10 -10 -10 -10 -10 -10 
23 -10 -10 -10 43 43 43 43 43 
43 43 43 -10 43 -10 -10 -10 -10 
-10 -10 -10 -10 -10 -10 -10 -10 2 
2 2 2 2 2 2 2 2 2 
2 2 2 2 2 2 2 2 -10 
-10 -10 -10 -10 -10 -10 21 21 21 
21 28 21 21 28 28 28 28 28 
21 28 28 28 -10 -10 21 21 21 
21 21 21 21 21 21 28 2 2 
-10 2 28 -10 -10 -10 2 2 2 
2 2 2 2 2 2 2 2 2 
2 2 2 2 2 2 2 -10 2 
-10 -10 -10 -10 -10 -10 -10 -10 -10 
-10 -10 -10 -10 -10 -10 -10 -10 14 
-10 -10 14 -10 -10 14 -10 -10 -10 
-10 -10 -10 -10 -10 -10 -10 -10 -10 
-10 -10 -10 -10 -10 -10 -10 -10 -10 
-10 49 -10 49 -10 49 49 49 -10 
-10 -10 -10 -10 -10 -10 -10 -10 -10 
-10 -10 -10 7 7 7 7 15 18 
18 -10 -10 -10 33 33 -10 -10 15 
15 15 15 15 -10 -10 33 26 -10 
-10 -10 -10 -10 -10 -10 -10 -10 -10 
-10 -10 -10 -10 -10 -10 -10 -10 -10 
-10 -10 -10 -10 -10 -10 -10 -10 -10 
34 34 -10 -10 -10 -10 34 -10 -10 
-10 -10 -10 -10 -10 -10 -10 -10 -10 
-10 -10 -10 -10 -10 -10 34 34 -10 
-10 -10 34 -10 -10 -10 -10 -10 -10 
34 -10 -10 -10 -10 -10 -10 -10 -10 
-10 -10 -10 -10 -10 -10 -10 -10 34 
34 43 43 -10 -10 -10 -10 21 21 
21 21 21 -10 -10 -10 -10 -10 -10 
-10 21 21 21 36 36 -10 -10 -10 
3 -10 3 3 3 3 3 3 3 
3 3 3 3 18 -10 -10 -10 -10 
18 -10 -10 11 11 11 11 11 11 
11 11 11 11 11 11 11 11 11 
11 11 11 11 11 11 11 -10 -10 
-10 -10 15 15 -10 15 -10 15 18 
-10 -10 18 18 -10 18 -10 -10 11 
11 11 -10 11 11 11 11 11 11 
11 11 11 11 -10 -10 -10 -10 -10 
18 -10 -10 -10 -10 -10 -10 -10 11 
11 11 11 -10 -10 11 33 33 33 
33 33 33 33 -10 -10 -10 -10 -10 
-10 -10 -10 34 34 34 34 34 34 
34 34 -10 -10 -10 -10 -10 -10 -10 
34 -10 34 34 34 34 -10 -10 -10 
-10 -10 -10 -10 -10 -10 -10 -10 -10 
-10 -10 -10 -10 -10 -10 -10 -10 -10 
-10 34 34 34 34 34 -10 -10 -10 
34 -10 -10 -10 -10 -10 -10 -10 -10 
-10 -10 -10 -10 -10 -10 34 -10 34 
34 -10 -10 -10 -10 -10 -10 -10 -10 
-10 -10 -10 -10 -10 -10 -10 -10 -10 
27 27 27 27 27 27 27 27 -10 
23 23 23 23 23 -10 23 23 23 
23 23 23 23 -10 -10 -10 23 23 
-10 23 -10 23 23 23 23 23 -10 
-10 -10 -10 -10 -10 -10 -10 -10 -10 
-10 -10 -10 -10 -10 27 -10 -10 -10 
27 43 43 43 43 -10 21 2 -10 
-10 -10 -10 -10 -10 -10 -10 -10 -10 
-10 -10 19 19 19 -10 19 -10 -10 
19 -10 -10 -10 -10 -10 -10 -10 -10 
-10 -10 -10 -10 -10 -10 -10 -10 21 
-10 -10 21 14 14 14 14 14 14 
14 14 -10 -10 -10 -10 -10 -10 -10 
-10 -10 -10 -10 -10 3 3 3 3 
3 3 3 3 -10 -10 -10 -10 -10 
-10 -10 -10 -10 6 6 6 6 6 
6 6 6 6 6 6 6 6 6 
6 6 6 6 6 6 6 6 6 
6 6 6 6 6 6 6 6 -10 
8 8 8 8 8 8 8 8 8 
8 8 8 8 8 8 8 8 8 
8 8 8 -10 -10 -10 -10 -10 -10 
-10 -10 -10 -10 -10 36 36 36 36 
36 36 36 36 36 36 36 36 36 
36 36 -10 -10 -10 -10 36 36 36 
36 36 36 36 36 36 -10 36 36 
36 -10 36 36 36 36 -10 -10 36 
15 -10 -10 11 11 11 11 11 15 
15 15 15 15 33 -10 -10 -10 -10 
27 -10 27 27 -10 27 27 27 33 
33 33 33 -10 -10 -10 -10 -10 27 
-10 15 -10 -10 15 -10 -10 -10 -10 
-10 15 15 34 34 34 -10 34 -10 
-10 -10 -10 -10 -10 27 -10 -10 9 
9 9 9 9 9 9 9 9 9 
9 9 9 9 9 9 9 9 9 
9 9 9 -10 -10 -10 -10 -10 -10 
-10 -10 -10 -10 -10 -10 -10 -10 -10 
-10 -10 -10 -10 -10 9 9 -10 -10 
-10 9 -10 9 9 9 9 9 9 
9 9 9 9 9 9 9 9 9 
9 -10 9 -10 -10 -10 9 -10 -10 
-10 -10 -10 -10 -10 -10 22 22 22 
22 22 22 22 22 22 22 22 22 
22 22 22 22 22 22 22 22 22 
22 -10 -10 -10 -10 40 40 40 40 
40 40 40 40 40 40 40 40 40 
40 40 40 23 23 23 23 23 23 
23 23 23 23 43 43 43 2 2 
2 21 21 21 21 21 21 21 21 
21 14 14 -10 -10 -10 2 2 -10 
-10 -10 -10 -10 -10 -10 2 -10 -10 
-10 -10 -10 -10 19 19 19 19 19 
19 19 19 19 19 19 19 19 19 
-10 -10 -10 19 -10 -10 -10 4 -10 
4 -10 4 4 4 4 4 4 4 
4 4 4 4 -10 4 4 4 4 
4 4 -10 4 -10 -10 4 4 -10 
-10 -10 -10 -10 -10 -10 -10 20 20 
20 20 20 20 20 20 20 20 20 
20 20 20 20 20 20 20 20 20 
20 20 20 20 20 20 20 -10 -10 
-10 -10 -10 -10 -10 -10 -10 -10 -10 
-10 -10 -10 45 45 -10 45 45 45 
45 45 45 45 45 45 45 45 45 
45 45 45 45 45 45 45 45 45 
45 45 45 45 45 -10 45 45 -10 
-10 45 45 -10 -10 -10 -10 -10 -10 
-10 -10 -10 47 47 -10 47 47 47 
47 47 47 47 47 47 47 47 47 
47 47 47 47 47 47 47 47 -10 
47 47 47 -10 -10 1 -10 -10 -10 
-10 -10 -10 15 15 11 11 11 11 
11 11 11 11 11 11 11 -10 11 
-10 11 -10 11 -10 -10 11 -10 -10 
-10 11 11 11 11 11 33 -10 -10 
-10 -10 -10 11 -10 -10 -10 11 11 
11 11 11 11 11 -10 -10 -10 27 
-10 -10 -10 -10 -10 27 27 27 27 
27 27 27 27 27 27 27 27 27 