# vtk DataFile Version 4.2
vtk output
ASCII
DATASET POLYDATA
POINTS 10000 float
0.0419696 -0.0271789 0 0.0482919 -0.0242507 0 0.0469296 -0.0227716 0 
0.0439274 -0.0238867 0 0.0397659 -0.0303118 0 0.0422789 -0.0291055 0 
0.00382784 -0.0498534 0 3.57573e-07 -0.0500001 0 0.00150677 -0.0516822 0 
0.0419755 0.0271755 0 0.0439314 0.0238836 0 0.0507407 0.0351297 0 
0.0499669 -0.0019166 0 0.0496716 -0.0057348 0 0.0578509 0.00414722 0 
0.0578736 0.000617178 0 0.0482145 -0.0132498 0 0.0545129 -0.00522027 0 
0.0490887 -0.00952089 0 0.0575634 0.0123127 0 0.0496752 0.00573211 0 
0.0499663 0.00191391 0 0.0236131 -0.0458136 0 0.0221866 -0.0448085 0 
0.0186914 -0.0463754 0 0.0211819 -0.0474885 0 0.0150865 -0.04767 0 
0.0178412 -0.0484516 0 0.0141225 -0.0498096 0 0.0113931 -0.048685 0 
0.00990866 -0.0508364 0 0.00763289 -0.0494142 0 -0.00573287 -0.0528322 0 
-0.00295403 -0.0510877 0 -0.00660898 -0.0509417 0 -0.00382713 -0.0498534 0 
-0.00763214 -0.0494142 0 0.0287743 0.0408931 0 0.0318207 0.038571 0 
0.0340756 0.0460393 0 -0.00189814 -0.0526097 0 -0.0499626 -0.00191544 0 
-0.0499626 0.00191483 0 -0.0505057 0.000473461 0 -0.0487314 0.0141074 0 
-0.0482118 0.0132487 0 -0.0470561 0.0169005 0 -0.0287645 0.0408959 0 
-0.0257548 0.0433596 0 -0.0285916 0.041868 0 -0.0255494 0.0429779 0 
-0.0320947 0.0391273 0 -0.0318108 0.0385739 0 -0.0346713 -0.0360262 0 
-0.037327 -0.0332666 0 -0.0352524 -0.0355821 0 -0.0359475 0.0357469 0 
-0.0373265 0.0332658 0 -0.0346704 0.0360256 0 -0.0388588 0.0329199 0 
-0.0399856 0.0309262 0 -0.0397636 0.0303108 0 -0.045348 0.0228255 0 
-0.0456243 0.0204531 0 -0.0439247 0.0238856 0 -0.041385 -0.0286928 0 
-0.0394296 -0.0309778 0 -0.0419676 -0.0271787 0 -0.0397641 -0.0303115 0 
-0.043925 -0.0238863 0 -0.0456245 -0.0204537 0 -0.0452117 -0.0226462 0 
0.0516284 -0.211892 0 0.0465251 -0.209829 0 0.0407292 -0.220997 0 
0.0377879 -0.217257 0 0.0488284 -0.276456 0 0.0531591 -0.271541 0 
0.0457384 -0.275437 0 0.0522004 -0.268673 0 0.0433014 -0.275 0 
0.0454818 -0.270771 0 0.0407289 -0.279003 0 0.042846 -0.279196 0 
0.0433017 -0.225 0 0.0398 -0.285111 0 0.0377876 -0.282743 0 
0.0345041 -0.286187 0 0.0550013 -0.232016 0 0.0485909 -0.238212 0 
0.0558267 -0.236589 0 0.0494914 -0.242884 0 0.0258205 -0.294803 0 
0.0185832 -0.296418 0 0.0199359 -0.297307 0 0.0140867 -0.297975 0 
0.0229114 -0.294442 0 0.0270321 -0.292063 0 0.0263947 -0.203056 0 
0.0229117 -0.205558 0 0.0270324 -0.207937 0 0.0185835 -0.203582 0 
0.00475285 -0.299774 0 0.0015471 -0.300601 0 0.00587497 -0.300496 0 
4.32948e-08 -0.3 0 -0.00475276 -0.299774 0 -0.00669481 -0.300642 0 
-0.0270318 -0.207937 0 -0.0229111 -0.205558 0 -0.0229492 -0.19803 0 
-0.00475251 -0.200227 0 0.000343724 -0.196098 0 -0.00259503 -0.19331 0 
2.84721e-07 -0.2 0 -0.00946226 -0.200904 0 -0.0300598 -0.291489 0 
-0.0229112 -0.294442 0 -0.0270321 -0.292063 0 -0.0192612 -0.199908 0 
-0.0185829 -0.203582 0 -0.0309078 -0.289303 0 -0.0380334 -0.284662 0 
-0.0433013 -0.275 0 -0.046648 -0.271452 0 -0.0407288 -0.279003 0 
-0.0491623 -0.265478 0 -0.0530599 -0.261794 0 -0.0454814 -0.270771 0 
-0.0189988 -0.194902 0 -0.0538281 -0.241712 0 -0.0529401 -0.248091 0 
-0.0499433 -0.252379 0 -0.0494909 -0.257116 0 -0.0424047 -0.215113 0 
-0.043301 -0.225 0 -0.0407286 -0.220997 0 -0.0499433 -0.247621 0 
-0.0516461 -0.236999 0 -0.0515542 -0.244213 0 -0.049491 -0.242884 0 
-0.0503525 -0.231706 0 0.205066 -0.280658 0 0.209212 -0.275858 0 
0.203022 -0.276742 0 0.211749 -0.278851 0 0.198457 -0.281544 0 
0.198863 -0.286643 0 0.205552 -0.285116 0 0.185523 -0.290138 0 
0.18747 -0.293381 0 0.192886 -0.289576 0 0.179624 -0.292752 0 
0.173301 -0.29256 0 0.17053 -0.297082 0 0.176395 -0.297012 0 
0.16164 -0.295559 0 0.167546 -0.294411 0 0.164237 -0.291401 0 
0.169033 -0.289713 0 0.164584 -0.29826 0 0.165654 -0.30181 0 
0.171395 -0.300798 0 0.169368 -0.30527 0 0.17726 -0.301926 0 
0.183553 -0.29781 0 0.180628 -0.3046 0 0.188823 -0.302102 0 
0.197448 -0.29924 0 0.191919 -0.296091 0 0.198634 -0.292791 0 
0.205431 -0.295564 0 0.198943 -0.305099 0 0.207258 -0.300959 0 
0.212705 -0.294189 0 0.220059 -0.298749 0 0.214277 -0.305404 0 
0.204926 -0.308229 0 0.211843 -0.312988 0 0.223642 -0.30606 0 
0.224247 -0.313162 0 0.214653 -0.320647 0 0.239073 -0.319034 0 
0.23687 -0.311362 0 0.22512 -0.321735 0 0.25411 -0.311261 0 
0.245585 -0.302481 0 0.25197 -0.292616 0 0.258623 -0.300512 0 
0.240295 -0.296458 0 0.241697 -0.287583 0 0.260724 -0.272311 0 
0.252916 -0.28279 0 0.266978 -0.278052 0 0.265174 -0.289325 0 
0.245227 -0.264756 0 0.241765 -0.2715 0 0.250746 -0.273467 0 
0.240779 -0.278757 0 0.233669 -0.273093 0 0.229804 -0.279704 0 
0.228184 -0.27217 0 0.223012 -0.277615 0 0.214069 -0.283138 0 
0.217488 -0.278867 0 0.20478 -0.290618 0 0.211456 -0.287667 0 
0.207644 -0.272075 0 0.213165 -0.269962 0 0.208185 -0.266957 0 
0.203496 -0.269927 0 0.207342 -0.26096 0 0.212343 -0.263032 0 
0.20205 -0.265597 0 0.201262 -0.259115 0 0.198283 -0.263316 0 
0.19376 -0.261597 0 0.195588 -0.257282 0 0.190509 -0.257025 0 
0.189353 -0.260966 0 0.199049 -0.248728 0 0.193746 -0.252825 0 
0.199212 -0.25347 0 0.187763 -0.254564 0 0.191029 -0.250478 0 
0.185788 -0.251849 0 0.18901 -0.247388 0 0.182539 -0.250032 0 
0.186128 -0.244856 0 0.184291 -0.240926 0 0.191887 -0.236753 0 
0.184883 -0.236308 0 0.197949 -0.232104 0 0.190742 -0.230178 0 
0.184693 -0.228033 0 0.181053 -0.234587 0 0.21025 -0.220095 0 
0.210802 -0.213126 0 0.203177 -0.21871 0 0.195795 -0.216614 0 
0.203758 -0.212372 0 0.220665 -0.211753 0 0.216395 -0.217973 0 
0.22326 -0.217025 0 0.230785 -0.213033 0 0.225862 -0.222773 0 
0.225097 -0.231545 0 0.23148 -0.225617 0 0.222151 -0.23865 0 
0.21804 -0.232879 0 0.213521 -0.238318 0 0.204823 -0.249277 0 
0.197393 -0.269801 0 0.200211 -0.273677 0 0.19394 -0.26658 0 
0.191093 -0.270541 0 0.217728 -0.273078 0 0.217748 -0.265458 0 
0.217962 -0.260285 0 0.221686 -0.254616 0 0.214783 -0.256879 0 
0.216539 -0.251683 0 0.226264 -0.247015 0 0.227463 -0.25236 0 
0.218754 -0.246068 0 0.211642 -0.248764 0 0.207994 -0.243595 0 
0.215025 -0.242809 0 0.225949 -0.268612 0 0.222441 -0.266953 0 
0.231945 -0.261358 0 0.235927 -0.265938 0 0.240171 -0.257601 0 
0.232158 -0.254135 0 0.241542 -0.250318 0 0.250995 -0.249565 0 
0.250095 -0.25762 0 0.24595 -0.24286 0 0.255498 -0.240074 0 
0.254527 -0.234123 0 0.266858 -0.235672 0 0.263991 -0.227939 0 
0.261693 -0.244878 0 0.27086 -0.246432 0 0.277873 -0.231727 0 
0.279007 -0.251799 0 0.280569 -0.239195 0 0.290383 -0.24161 0 
0.287657 -0.256229 0 0.301463 -0.245531 0 0.299394 -0.258564 0 
0.308919 -0.264883 0 0.316657 -0.250074 0 0.31314 -0.237162 0 
0.3178 -0.271524 0 0.329315 -0.255476 0 0.331231 -0.274109 0 
0.346683 -0.264825 0 0.349776 -0.24912 0 0.340845 -0.238633 0 
0.375528 -0.240074 0 0.357918 -0.23646 0 0.362982 -0.255872 0 
0.364945 -0.225092 0 0.382364 -0.217072 0 0.353224 -0.216658 0 
0.370334 -0.208831 0 0.385751 -0.197184 0 0.397824 -0.20579 0 
0.363063 -0.19968 0 0.375595 -0.185309 0 0.395761 -0.181064 0 
0.38225 -0.16987 0 0.400682 -0.163899 0 0.387762 -0.151042 0 
0.406044 -0.147446 0 0.388776 -0.13142 0 0.401466 -0.134645 0 
0.420079 -0.130524 0 0.410849 -0.117314 0 0.440515 -0.0938861 0 
0.42221 -0.100773 0 0.433873 -0.11389 0 0.414328 -0.0806526 0 
0.428073 -0.0824403 0 0.401401 -0.103444 0 0.395989 -0.0902176 0 
0.379214 -0.10886 0 0.379815 -0.095804 0 0.361403 -0.106223 0 
0.363044 -0.117061 0 0.346164 -0.116666 0 0.329328 -0.118503 0 
0.341197 -0.130181 0 0.337765 -0.107459 0 0.326095 -0.130702 0 
0.313649 -0.123515 0 0.310153 -0.135136 0 0.315808 -0.144177 0 
0.301579 -0.146536 0 0.304831 -0.155961 0 0.291361 -0.153782 0 
0.294563 -0.166374 0 0.284871 -0.164622 0 0.306823 -0.164973 0 
0.284135 -0.17451 0 0.288304 -0.179858 0 0.270626 -0.167532 0 
0.275784 -0.17331 0 0.274193 -0.183966 0 0.259763 -0.171912 0 
0.266621 -0.177611 0 0.253656 -0.179609 0 0.261395 -0.185926 0 
0.244277 -0.185415 0 0.24486 -0.176518 0 0.234895 -0.190177 0 
0.234825 -0.183723 0 0.23809 -0.195325 0 0.226192 -0.193126 0 
0.226579 -0.184445 0 0.22732 -0.199428 0 0.211283 -0.197452 0 
0.216843 -0.200172 0 0.219708 -0.191641 0 0.22449 -0.205846 0 
0.215336 -0.20699 0 0.224534 -0.260556 0 0.228299 -0.241024 0 
0.237503 -0.238412 0 0.231138 -0.233852 0 0.237735 -0.230741 0 
0.245844 -0.235519 0 0.246238 -0.227073 0 0.239862 -0.222915 0 
0.254179 -0.227203 0 0.274418 -0.2237 0 0.268658 -0.217641 0 
0.285567 -0.219652 0 0.296866 -0.208427 0 0.285732 -0.211648 0 
0.286533 -0.202935 0 0.296567 -0.195768 0 0.28785 -0.193438 0 
0.281402 -0.189797 0 0.294353 -0.18497 0 0.209967 -0.255517 0 
0.20529 -0.25438 0 0.298075 -0.276545 0 0.279446 -0.278237 0 
0.280287 -0.288288 0 0.27119 -0.299445 0 0.289453 -0.269668 0 
0.276002 -0.266544 0 0.267642 -0.260007 0 0.260338 -0.254517 0 
0.255971 -0.264309 0 0.235995 -0.245596 0 0.312496 -0.28384 0 
0.296062 -0.287967 0 0.305063 -0.297279 0 0.285162 -0.297479 0 
0.271375 -0.308397 0 0.249093 -0.322426 0 0.22828 -0.329942 0 
0.214721 -0.332682 0 0.197908 -0.326366 0 0.207314 -0.328726 0 
0.205167 -0.320652 0 0.186925 -0.324597 0 0.194117 -0.320503 0 
0.187844 -0.316972 0 0.178951 -0.322781 0 0.190914 -0.307159 0 
0.195153 -0.312266 0 0.183299 -0.313514 0 0.346806 -0.281166 0 
0.323845 -0.292846 0 0.291406 -0.306053 0 0.289931 -0.324029 0 
0.306874 -0.309404 0 0.301749 -0.320631 0 0.283547 -0.315976 0 
0.257917 -0.351441 0 0.270922 -0.352601 0 0.267972 -0.341389 0 
0.284578 -0.35205 0 0.281565 -0.342305 0 0.257059 -0.361351 0 
0.242162 -0.359209 0 0.249322 -0.372017 0 0.233669 -0.371451 0 
0.266314 -0.368907 0 0.268994 -0.382809 0 0.25015 -0.382446 0 
0.254834 -0.390767 0 0.231821 -0.382316 0 0.233784 -0.396253 0 
0.24936 -0.403066 0 0.234395 -0.413183 0 0.216529 -0.407028 0 
0.213716 -0.428511 0 0.230689 -0.427427 0 0.197932 -0.413815 0 
0.196494 -0.429753 0 0.193663 -0.446816 0 0.178941 -0.43737 0 
0.168242 -0.452076 0 0.188548 -0.463087 0 0.146892 -0.448277 0 
0.138994 -0.462347 0 0.165954 -0.471656 0 0.122403 -0.447815 0 
0.103309 -0.450142 0 0.114249 -0.464777 0 0.12659 -0.416964 0 
[...]
POINT_DATA 10000
FIELD FieldData 1
lines 1 10000 double
7 6 7 7 7 7 7 8 7 
8 8 8 7 7 7 7 7 7 
7 7 7 7 7 7 7 7 7 
7 7 7 7 7 8 8 8 8 
8 9 9 9 7 10 10 10 11 
10 11 11 11 11 11 11 11 9 
9 9 11 11 11 11 11 11 11 
11 11 9 9 9 9 9 9 9 
2 2 2 2 2 2 2 2 2 
2 2 2 2 2 2 2 2 2 
2 2 3 3 3 3 3 3 3 
3 3 3 3 3 3 4 4 4 
5 4 5 4 4 4 4 4 4 
4 4 4 4 5 5 5 5 5 
5 5 5 5 6 6 6 6 5 
5 5 6 6 6 6 6 2 2 
2 2 2 2 2 2 2 2 2 
2 2 2 2 2 2 2 2 2 
2 2 2 2 3 3 3 3 3 
3 3 3 3 3 3 3 3 3 
3 3 3 3 3 3 3 3 3 
3 3 2 3 3 3 2 2 2 
2 2 2 2 2 2 2 2 2 
2 2 2 2 2 2 2 1 2 
1 1 1 1 1 1 1 1 1 
1 1 1 1 1 1 0 1 1 
0 0 1 1 1 0 1 1 1 
1 1 1 1 1 1 1 1 1 
2 2 2 2 2 2 2 2 2 
1 2 2 1 1 1 1 2 2 
2 2 2 2 2 2 2 2 2 
2 2 2 2 2 2 2 2 2 
3 3 3 3 3 3 3 3 3 
3 3 3 3 3 3 3 3 3 
3 3 3 3 3 3 3 3 3 
3 3 3 3 3 3 3 3 3 
3 3 3 3 3 3 3 3 3 
3 3 2 2 2 2 2 2 2 
2 2 2 2 2 2 2 2 2 
2 1 2 1 1 1 1 1 1 
1 1 1 1 1 1 1 2 1 
2 1 1 2 2 1 2 2 2 
2 2 2 2 2 2 2 2 1 
1 3 3 3 3 3 3 2 2 
2 2 3 3 3 3 3 3 3 
3 3 3 3 3 3 3 3 3 
3 3 3 3 3 3 3 3 3 
4 4 4 4 4 4 4 4 4 
4 4 4 4 4 4 4 4 4 
4 4 4 5 5 5 5 5 5 
5 5 5 5 5 4 4 4 4 
4 4 4 4 4 4 4 4 4 
4 4 4 4 4 4 4 4 4 
4 4 4 4 3 3 3 3 4 
3 4 4 4 4 4 3 3 4 
3 4 3 4 4 4 4 4 4 
4 4 4 4 4 4 4 4 4 
4 4 4 5 5 5 5 5 5 
5 5 5 5 5 5 5 5 5 
5 5 5 5 5 5 5 5 5 
5 5 5 5 5 5 5 5 5 
5 5 5 5 5 5 6 5 6 
5 5 5 6 6 6 6 6 6 
6 6 6 6 6 6 6 6 6 
6 6 6 6 6 6 6 6 6 
6 7 6 6 6 6 10 10 11 
10 11 10 11 11 11 11 11 11 
10 11 11 10 10 10 10 10 10 
10 10 10 10 10 9 10 9 9 
10 10 10 9 9 9 9 9 9 
9 9 9 9 9 9 9 9 9 
9 8 8 9 8 8 8 8 8 
8 8 8 8 8 7 3 3 3 
3 3 3 3 3 2 2 3 3 
2 3 2 2 2 2 2 2 2 
2 2 2 2 2 3 3 3 2 
2 3 3 3 3 3 4 4 4 
4 4 4 4 4 4 4 2 2 
2 2 2 2 2 2 2 2 2 
2 2 2 1 2 2 2 2 2 
2 2 2 2 2 2 2 2 2 
2 2 2 2 2 2 2 2 2 
2 2 2 1 2 1 2 1 2 
1 1 1 2 1 1 1 1 1 
1 1 1 1 1 1 1 1 1 
1 1 1 1 1 1 1 1 1 
1 1 1 1 1 1 1 1 2 
2 1 2 2 2 2 2 2 2 
2 3 2 2 3 3 3 3 3 
3 3 3 3 3 4 3 3 3 
5 5 5 5 5 5 5 5 5 
5 6 5 5 6 6 5 6 6 
6 5 6 5 5 5 5 5 5 
5 5 5 5 5 5 4 5 4 
4 5 4 4 4 4 4 4 4 
4 4 4 4 4 4 4 4 4 
4 4 4 4 4 4 4 4 4 
4 4 4 5 5 4 5 5 5 
5 5 5 5 5 5 5 5 5 
5 6 6 6 6 6 6 6 6 
6 6 6 6 6 6 6 6 6 
6 6 6 6 6 6 6 6 5 
5 5 5 5 5 5 5 5 5 
5 5 5 5 5 5 5 5 4 
4 4 4 4 4 4 4 4 4 
4 4 4 4 4 3 4 3 4 
3 3 3 3 3 3 3 3 3 
3 3 3 3 3 3 3 3 3 
3 2 2 2 3 2 2 2 2 
2 2 2 2 2 2 2 2 1 
1 1 1 1 1 1 1 2 2 
1 1 1 1 2 1 1 1 2 
1 1 1 1 1 1 1 1 1 
1 1 1 1 1 1 1 1 1 
1 1 1 1 1 1 1 2 2 
2 2 2 2 2 2 2 2 3 
3 3 1 1 1 1 1 1 1 
1 1 1 1 1 1 1 1 1 
1 3 2 3 1 1 1 0 1 
1 3 3 3 3 3 4 4 4 
4 3 4 4 4 4 4 3 3 
3 4 4 4 2 2 2 2 2 
2 2 2 1 1 1 1 8 8 
8 8 8 8 8 8 8 8 8 
8 8 8 8 8 8 8 8 8 
8 8 8 8 8 8 8 8 8 
8 8 8 8 8 7 7 7 8 
8 8 8 8 8 7 7 8 8 
8 8 8 8 8 8 8 8 8 
8 8 8 8 8 8 8 8 8 
8 8 8 8 8 8 8 8 9 
8 11 11 11 11 11 11 11 11 
11 11 11 11 11 11 11 11 12 
12 11 12 12 12 12 12 12 12 
12 12 12 12 12 12 12 12 12 
12 13 13 12 12 13 12 13 13 
13 12 13 13 13 13 13 13 13 
13 13 13 13 13 13 13 13 13 
13 13 13 13 13 13 13 13 13 
13 13 13 13 13 13 13 13 13 
13 13 13 13 13 13 13 13 13 
13 13 13 13 13 13 13 13 13 
13 13 13 13 13 13 13 13 13 
13 13 13 13 13 13 13 13 13 
13 13 13 13 13 13 13 13 13 
13 13 13 13 13 13 13 13 13 
13 13 13 13 13 13 12 12 13 
12 12 12 12 12 12 12 12 12 
12 12 12 11 11 11 11 11 11 
11 11 11 11 11 11 11 11 11 
11 11 11 11 11 11 11 11 11 
10 10 10 10 10 10 10 10 10 
10 10 10 10 10 10 10 10 10 
10 10 10 10 10 10 10 10 10 
10 10 10 10 10 10 10 10 10 
10 10 10 10 10 10 10 10 10 
10 10 10 10 10 10 10 10 10 
11 11 11 11 11 11 11 11 11 
11 11 11 11 11 11 11 11 11 
11 12 12 12 12 12 11 12 12 
12 12 12 12 12 12 12 12 12 
12 12 12 12 11 12 11 12 12 
12 12 11 12 11 12 12 12 12 
12 12 12 12 12 12 12 12 12 
12 12 12 12 12 12 13 13 13 
13 13 12 13 13 12 12 12 12 
12 12 12 12 12 12 12 12 12 
12 12 12 12 12 12 12 12 12 
12 12 12 12 12 12 12 12 12 
12 12 12 12 12 12 12 12 12 
12 11 11 11 11 11 11 11 11 
11 4 4 4 4 3 3 3 3 
2 3 3 3 3 3 3 3 3 
3 3 3 3 3 3 3 3 3 
3 3 3 3 3 3 3 3 3 
3 3 3 3 3 3 3 3 3 
3 3 3 3 3 3 3 3 3 
3 3 3 3 3 3 3 3 3 
3 3 3 3 3 3 3 3 3 
2 2 2 3 2 3 2 2 2 
2 2 2 3 3 2 3 2 2 
2 2 3 3 3 3 3 3 3 
3 3 3 3 3 3 3 3 4 
4 4 4 4 4 4 4 4 4 
4 4 4 5 5 5 5 5 5 
5 5 5 5 5 5 5 4 4 
4 4 4 4 4 4 4 4 4 
4 4 4 4 4 4 4 3 3 
3 3 3 3 2 3 3 3 3 
3 3 4 1 1 1 1 1 1 
1 1 1 1 1 4 4 4 4 
4 4 4 4 4 4 1 2 2 
2 6 5 6 6 6 6 6 6 
6 6 6 7 7 7 6 6 7 
6 6 6 6 6 6 6 6 6 
6 6 6 6 6 6 6 6 5 
5 3 3 3 3 3 3 3 3 
3 3 3 3 3 3 3 3 3 
3 3 3 3 3 3 3 3 3 
3 3 3 3 3 3 3 3 2 
2 2 2 2 2 2 2 2 4 
4 4 4 4 4 4 4 4 4 
4 4 4 4 4 4 4 4 4 
4 4 4 4 4 4 4 4 4 
4 4 4 4 4 4 5 5 5 
5 5 5 5 5 5 3 4 4 
4 4 4 4 2 3 2 3 1 
1 1 3 3 3 3 3 3 4 
4 3 4 4 3 4 4 0 0 
0 1 1 1 1 0 1 0 1 
0 0 0 0 0 0 0 0 0 
0 0 0 0 0 0 0 0 0 
0 0 0 0 0 0 0 0 0 
1 1 1 0 1 0 0 0 1 
0 1 0 1 0 0 0 0 0 
0 0 0 0 0 0 0 0 0 
0 0 0 0 0 4 4 4 0 
4 5 5 4 1 1 1 2 2 
2 2 2 2 2 2 2 2 2 
2 2 2 2 2 2 2 2 2 
2 2 1 2 2 2 2 2 2 
2 2 2 2 2 2 2 2 2 
2 3 3 3 3 3 3 2 2 
2 2 2 2 2 3 3 3 4 
3 3 4 3 4 3 3 4 3 
3 3 3 3 3 3 3 3 3 
3 3 3 3 3 3 3 3 3 
3 4 3 4 4 4 4 4 4 
4 4 4 4 4 4 4 4 4 
4 4 4 4 5 5 5 5 5 
5 5 5 5 5 5 5 5 3 
3 3 2 2 4 4 4 4 4 
4 4 4 4 4 4 4 4 4 
4 4 3 4 4 4 4 4 4 
5 4 4 4 4 4 5 4 4 
5 5 4 5 4 4 4 4 4 
3 3 3 3 3 3 3 3 3 
3 3 3 3 3 3 3 2 3 
3 3 3 3 3 3 4 3 4 
4 4 4 4 4 4 4 4 4 
4 4 4 4 4 4 4 4 5 
5 5 5 4 5 5 1 1 1 
1 1 1 4 1 4 4 0 0 
0 0 0 0 0 0 0 0 0 
0 0 0 0 0 0 1 1 0 
0 0 0 0 0 0 0 0 0 
2 1 1 1 1 1 1 1 1 
1 1 1 1 1 1 1 1 1 
1 1 1 1 1 1 1 1 1 
2 1 2 2 2 2 2 2 2 
2 2 2 2 2 2 2 2 2 
2 2 1 1 1 1 1 1 0 
0 0 0 0 2 2 2 3 3 
3 3 2 2 2 3 2 3 2 
2 2 2 3 3 5 5 3 3 
3 4 2 2 2 2 2 3 3 
2 2 3 2 2 2 2 4 4 
4 4 4 5 5 5 5 5 5 
5 5 2 2 2 1 0 0 0 
0 0 0 4 4 4 0 0 1 
1 1 1 1 1 1 1 1 1 
1 1 1 1 1 1 1 1 1 
1 1 1 1 1 1 2 1 2 
2 2 2 2 2 2 2 2 2 
2 2 2 5 5 5 5 5 5 
5 5 5 5 5 4 4 4 4 
4 4 4 4 4 4 4 3 4 
4 4 4 4 3 4 4 4 4 
4 4 4 4 4 4 4 4 4 
4 4 5 5 4 5 5 5 5 
5 5 5 5 5 5 5 5 5 
5 5 5 5 5 5 2 2 4 
4 1 1 0 0 0 0 0 0 
0 1 1 1 1 1 1 1 1 
2 2 2 2 2 2 2 2 2 
2 2 5 3 3 3 3 3 4 
4 4 4 4 4 4 4 4 3 
3 3 3 3 3 3 3 4 1 
1 1 1 1 1 1 1 1 1 
1 0 0 0 0 0 0 0 0 
0 0 1 1 2 2 5 5 5 
5 5 6 5 5 5 5 5 5 
4 4 4 4 4 4 3 6 6 
6 6 6 3 3 3 3 3 2 
2 2 2 2 2 2 2 2 3 
3 2 2 2 2 2 2 2 2 
2 2 2 2 2 2 2 2 2 
2 2 2 2 2 2 2 2 2 
2 2 2 2 2 2 2 2 2 
2 2 5 1 0 1 0 0 0 
0 0 0 1 1 0 0 1 0 
0 1 1 1 1 1 1 1 1 
1 1 1 1 1 1 1 1 1 
1 2 2 2 2 0 0 0 1 
1 0 1 1 1 1 1 1 1 
1 1 1 1 2 2 3 7 7 
7 7 7 7 7 7 7 7 7 
7 7 7 7 7 7 7 7 7 
7 7 7 7 7 7 7 7 7 
7 7 7 7 7 7 7 7 7 
7 7 7 7 7 7 7 7 7 
7 7 7 7 7 7 7 7 7 
7 7 7 8 8 7 8 8 7 
8 8 8 8 8 4 4 4 4 
6 6 4 4 4 4 4 4 4 
4 4 5 5 5 5 5 5 5 
5 4 4 3 4 3 3 3 3 
3 3 2 2 5 5 5 5 5 
1 1 1 0 1 0 1 1 1 
1 1 1 1 0 0 0 1 6 
6 6 7 7 7 6 6 6 6 
6 6 6 6 4 4 4 4 4 
4 4 4 4 4 3 4 4 4 
4 4 4 4 4 4 4 4 3 
2 3 2 2 2 2 2 2 2 
2 3 3 3 3 3 3 3 3 
3 3 3 4 3 4 4 3 4 
3 4 4 4 4 4 4 4 4 
5 5 1 1 1 1 2 2 1 
2 2 2 2 2 2 2 2 5 
1 1 1 1 1 1 1 1 1 
1 1 1 1 1 1 1 1 1 
1 2 2 1 1 1 1 1 1 
2 1 2 1 1 1 1 1 1 
2 2 2 2 2 2 2 2 2 
2 2 2 2 3 3 2 2 3 
2 2 2 2 2 2 2 2 2 
2 3 4 3 3 4 3 4 5 
5 4 4 6 5 5 5 5 5 
5 5 5 5 4 3 3 3 3 
3 2 3 3 3 3 3 5 2 
2 2 2 2 2 2 2 2 2 
2 2 2 2 2 2 2 2 2 
2 2 2 3 3 3 3 3 3 
3 3 3 1 1 1 1 1 1 
1 1 1 1 1 2 2 2 2 
2 2 3 3 3 5 7 7 7 
7 7 7 7 7 7 7 7 7 
7 6 6 6 6 7 7 7 7 
7 7 6 6 6 7 6 6 6 
6 6 6 6 6 6 6 6 6 
6 6 6 6 6 6 6 6 6 
6 6 6 6 6 6 6 6 6 
6 6 6 6 6 6 6 6 6 
7 7 6 6 5 5 5 5 7 
6 6 6 6 6 6 6 6 6 
6 6 6 7 7 7 7 7 7 
7 7 7 7 3 3 3 3 3 
3 3 3 4 4 4 4 4 4 
4 4 4 4 4 4 4 4 4 
4 4 4 4 5 5 5 2 2 
2 2 2 1 1 1 1 1 1 
1 1 1 1 1 2 2 1 2 
2 2 2 2 3 3 3 3 3 
4 4 4 4 4 4 4 4 4 
4 8 8 5 5 5 5 5 6 
6 7 7 7 7 6 6 6 6 
6 6 6 6 6 6 6 6 6 
6 6 6 6 6 7 8 7 7 
7 7 7 7 7 7 7 7 7 
7 7 7 7 7 7 6 6 8 
7 7 8 8 8 4 4 4 4 
4 4 2 2 2 2 2 2 2 
2 2 2 2 2 2 3 3 2 
3 3 1 1 3 3 3 3 3 
3 4 3 4 4 4 4 4 4 
4 4 4 4 4 4 5 5 4 
5 5 5 5 5 5 5 5 5 
5 5 5 5 5 6 6 6 6 
6 6 6 6 6 6 6 6 6 
6 6 6 6 7 7 7 7 7 
7 7 7 7 7 7 7 7 7 
7 7 7 7 7 7 8 4 4 
4 4 8 8 8 5 5 8 8 
8 8 8 8 8 8 8 8 8 
8 8 8 8 8 8 8 8 8 
8 8 8 8 8 8 8 8 8 
8 8 8 9 8 9 9 8 9 
9 8 8 8 8 8 8 8 8 
6 6 6 6 6 6 6 6 6 
6 6 6 6 6 6 6 6 6 
6 8 11 11 11 11 11 11 11 
11 11 11 11 11 11 11 11 10 
11 10 10 10 10 10 10 10 10 
10 10 10 10 10 10 10 10 10 
10 10 9 9 9 9 9 9 9 
9 9 9 9 9 9 9 9 9 
8 9 8 8 8 8 8 8 8 
8 8 11 11 11 11 11 11 12 
11 11 12 12 12 11 12 12 11 
11 11 12 11 12 11 12 12 12 
12 11 12 12 11 12 11 11 12 
11 11 11 12 12 11 12 12 12 
12 12 12 12 12 12 12 12 12 
12 12 12 12 12 12 12 12 12 
12 12 11 11 11 11 11 11 11 
11 11 11 11 11 11 11 11 11 
11 11 11 11 11 11 11 11 11 
11 11 11 11 11 11 11 11 11 
12 12 11 12 12 12 12 12 12 
12 11 11 11 11 11 11 11 11 
11 11 11 11 11 11 11 11 11 
11 11 11 11 11 11 11 11 11 
11 11 11 11 11 12 12 12 12 
12 12 12 12 12 12 12 12 12 
12 12 12 12 12 12 12 12 12 
12 12 12 12 12 12 12 12 12 
12 12 12 12 12 12 12 12 12 
12 12 5 5 5 5 5 5 5 
4 5 4 5 5 4 4 4 5 
4 4 4 4 4 4 4 4 6 
6 6 6 6 6 6 6 6 5 
5 6 5 5 5 6 5 6 5 
5 5 5 5 5 5 5 5 5 
2 2 2 2 2 2 2 2 2 
2 2 2 2 2 2 2 2 2 
2 2 2 2 3 3 3 3 3 
3 3 3 3 3 3 3 3 3 
3 3 3 4 4 3 4 4 4 
4 4 4 4 4 4 4 4 4 
5 4 5 5 5 5 5 5 5 
5 5 6 6 5 5 6 6 6 
6 6 6 6 6 6 6 6 6 
6 6 6 6 6 6 6 6 6 
6 6 6 6 6 6 6 7 3 
3 3 3 3 3 3 3 3 3 
3 3 3 3 3 4 8 8 5 
8 8 8 5 5 5 5 5 5 
5 5 5 9 8 9 9 9 9 
9 9 9 9 9 9 9 9 9 
9 9 9 9 10 9 10 9 10 
10 10 10 10 10 10 10 10 10 
10 10 10 10 10 10 10 10 10 
10 10 10 10 10 10 10 11 11 
11 11 11 11 11 11 11 11 11 
11 11 11 11 11 11 11 11 12 
12 12 12 12 12 12 12 12 12 
12 12 12 12 12 12 12 12 11 
12 11 12 11 11 11 11 11 11 
11 11 11 11 11 11 11 11 11 
11 11 11 11 11 11 11 11 11 
11 11 11 10 10 10 11 10 10 
10 10 11 11 10 11 10 11 10 
11 11 11 11 10 11 11 10 11 
10 11 10 10 11 11 10 11 11 
11 11 11 11 11 10 11 11 11 
11 11 11 11 11 11 11 11 11 
11 11 11 11 11 11 11 11 11 
11 11 11 11 11 11 11 11 11 
11 11 11 11 10 10 10 10 11 
10 10 10 10 10 10 10 10 10 
10 10 10 10 10 10 10 10 10 
10 10 10 10 10 10 9 10 9 
9 9 9 9 9 9 9 9 9 
9 9 9 9 9 9 9 9 9 
9 9 9 9 9 9 9 9 9 
9 9 9 9 9 5 6 7 6 
6 7 7 7 6 6 6 6 6 
6 7 6 7 7 7 7 7 7 
7 7 7 7 7 7 7 7 7 
7 7 7 7 7 7 7 7 7 
7 11 11 11 11 11 11 11 11 
11 11 11 10 10 10 10 10 11 
11 11 11 11 11 12 12 11 12 
12 12 12 12 12 12 12 12 12 
12 12 12 12 12 12 12 12 12 
12 12 12 12 12 12 12 12 12 
12 12 12 12 12 12 12 12 12 
12 12 12 12 12 12 11 11 11 
11 11 10 11 11 10 11 12 12 
11 12 12 12 12 11 12 12 4 
4 4 4 4 4 4 4 4 4 
4 4 6 6 6 6 6 6 6 
6 3 3 3 3 3 2 2 3 
3 3 2 2 2 2 2 2 2 
3 3 3 3 3 3 3 3 3 
3 3 3 4 3 4 4 4 4 
4 4 4 4 4 4 4 4 2 
3 3 3 3 3 3 3 4 4 
4 4 4 4 4 4 4 5 5 
5 5 5 5 5 5 5 5 5 
5 5 5 5 5 5 5 5 5 
6 6 6 6 6 6 4 4 4 
4 4 4 5 9 9 9 9 9 
9 9 9 9 9 9 9 9 9 
9 9 9 9 10 10 10 10 10 
10 10 10 10 11 10 11 11 11 
11 11 5 9 9 9 9 9 9 
9 9 10 9 9 10 9 10 10 
10 10 10 10 10 10 6 7 7 
7 7 7 7 7 7 7 7 7 
7 7 7 7 7 7 7 9 9 
9 9 9 9 9 9 9 9 9 
9 9 9 9 9 9 9 10 10 
11 10 10 10 10 10 10 10 10 
9 9 9 9 9 9 9 9 9 
9 9 9 9 9 9 9 11 11 
10 10 10 10 10 10 11 11 11 
11 11 11 11 11 11 11 12 12 
11 11 11 10 10 10 10 10 10 
10 10 10 10 10 10 10 10 10 
12 13 13 12 12 12 12 12 12 
12 12 12 12 12 12 12 12 12 
12 12 12 11 12 12 12 12 12 
12 12 12 11 12 5 5 6 6 
5 5 5 5 6 7 6 6 6 
6 6 6 6 6 6 6 6 6 
6 6 6 6 5 6 5 5 5 
5 5 5 5 5 5 5 5 5 
5 3 3 3 3 3 3 3 3 
3 3 3 3 3 3 3 3 3 
4 4 4 4 4 4 3 6 7 
7 7 3 7 7 7 7 7 7 
7 7 7 7 7 7 6 7 6 
7 7 7 6 6 6 6 6 6 
6 7 6 7 6 6 6 6 6 
6 6 6 6 6 6 6 6 6 
6 6 6 6 6 6 6 6 6 
6 6 6 6 6 6 6 6 6 
6 6 6 6 6 6 6 6 6 
6 6 6 6 6 6 6 6 6 
6 6 5 5 5 6 5 5 5 
5 5 5 2 2 2 2 9 5 
5 5 6 6 6 6 5 5 9 
9 9 9 9 5 5 7 9 8 
8 8 8 8 8 8 8 9 8 
8 9 8 8 8 8 8 8 8 
8 8 8 8 8 9 9 9 9 
10 10 11 10 11 11 10 11 11 
11 11 11 11 11 11 11 11 11 
11 11 10 11 11 10 10 10 11 
11 11 10 12 11 12 12 12 10 
10 10 10 10 10 10 10 10 10 
10 10 10 10 9 9 9 9 9 
9 12 12 11 7 7 7 3 3 
3 3 3 3 3 3 3 3 3 
3 3 4 4 3 3 10 10 10 
10 10 10 11 11 11 11 10 11 
11 11 11 11 4 4 4 5 5 
5 5 5 5 5 5 5 5 6 
6 6 6 6 6 6 6 6 6 
6 6 6 6 6 6 6 6 6 
6 6 10 9 10 10 10 9 5 
5 5 5 5 5 5 5 5 5 
5 5 5 6 5 5 6 6 6 
6 6 6 6 5 5 5 5 5 
5 5 5 5 6 6 6 5 5 
6 6 6 6 6 6 7 6 7 
7 7 7 7 6 6 6 6 6 
9 9 9 9 9 9 9 9 9 
9 9 9 8 8 8 8 8 9 
9 9 10 9 9 9 11 11 11 
11 11 11 11 11 11 11 11 11 
11 11 11 11 11 11 11 11 11 
11 10 10 10 10 9 11 11 11 
10 11 11 11 11 11 11 11 11 
11 11 11 11 11 11 10 10 10 
9 12 10 10 10 10 10 10 10 
10 10 10 9 9 9 9 9 9 
9 9 9 9 9 9 9 9 9 
10 10 10 10 10 10 10 10 10 
10 10 10 10 10 10 10 10 10 
10 10 10 10 10 10 10 10 10 
10 10 10 10 10 10 10 9 9 
9 9 9 9 9 9 9 9 9 
9 12 12 12 12 11 4 5 5 
7 8 8 7 7 7 7 7 7 
7 7 7 7 7 7 7 7 7 
7 7 7 7 7 7 7 7 7 
7 7 7 7 7 7 4 4 4 
4 3 4 5 5 5 5 5 5 
4 5 9 9 9 10 10 10 10 
10 10 10 10 10 10 10 10 10 
10 10 10 10 10 10 10 10 10 
10 10 10 10 10 10 10 10 10 
10 10 10 10 9 10 10 9 9 
10 10 9 9 9 10 10 9 9 
9 9 9 9 9 9 9 9 9 
9 9 9 9 9 9 9 9 9 
10 10 10 10 10 10 10 10 10 
11 11 11 2 3 3 3 3 3 
3 3 3 3 3 3 3 3 4 
4 4 4 4 4 4 4 4 4 
4 4 4 5 4 5 4 4 4 
4 4 4 4 4 4 5 4 4 
4 5 5 4 4 4 4 4 4 
9 5 5 5 5 5 5 5 9 
10 10 10 10 7 6 7 7 7 
8 7 8 8 7 8 8 8 7 
7 7 7 7 7 7 7 7 8 
10 10 10 11 10 11 11 10 11 
11 11 10 9 10 10 10 9 11 
11 11 9 9 9 9 9 9 12 
12 12 12 12 12 12 12 12 12 
12 12 12 12 12 13 12 13 12 
13 12 13 12 13 13 13 13 13 
13 13 13 13 13 13 13 13 13 
13 13 13 13 13 13 13 13 13 
13 13 13 12 12 12 12 12 12 
12 12 12 12 12 13 13 13 13 
13 13 13 13 13 13 13 13 13 
13 13 13 13 13 13 13 13 13 
13 13 12 12 13 12 12 12 12 
13 12 12 12 12 12 12 12 12 
12 13 12 12 13 12 13 13 13 
13 13 13 13 13 13 13 13 13 
13 13 13 10 11 11 11 11 10 
10 10 10 10 12 12 12 6 6 
5 4 4 5 5 4 4 4 4 
4 5 4 4 7 7 7 6 7 
7 7 7 7 7 7 7 7 7 
7 8 8 8 8 8 8 7 8 
8 8 8 8 8 8 8 8 8 
7 8 8 8 8 8 8 8 8 
8 8 8 8 8 8 8 8 8 
8 8 8 8 8 8 8 8 8 
8 8 8 8 8 8 8 8 8 
8 8 8 8 8 8 8 8 8 
8 8 8 8 8 8 8 8 8 
8 8 8 8 8 8 8 8 8 
8 8 8 8 8 8 8 8 8 
8 8 8 8 8 8 8 8 8 
8 8 7 8 7 7 8 7 7 
8 8 7 7 8 7 8 8 8 
7 8 8 7 8 8 8 8 8 
8 7 7 7 7 7 7 7 7 
7 7 7 7 7 7 7 7 6 
6 6 6 6 6 6 6 6 6 
6 6 6 6 6 6 6 6 6 
6 6 6 6 6 6 6 6 5 
5 5 5 3 11 11 11 11 11 
11 10 10 10 10 5 6 6 6 
6 6 6 6 6 7 7 7 7 
7 7 7 7 7 7 7 7 7 
7 6 6 6 6 6 7 7 7 
7 7 8 6 6 7 7 7 6 
7 6 6 7 6 11 11 11 8 
7 7 11 11 11 8 8 8 8 
8 9 8 8 9 8 9 9 9 
9 9 9 9 9 9 9 9 9 
9 9 10 10 10 10 10 10 10 
8 8 8 8 8 8 8 8 8 
9 8 8 8 8 9 9 9 8 
11 11 11 9 9 9 9 9 9 
9 9 9 9 9 9 9 9 12 
12 12 12 12 12 12 12 12 12 
12 12 13 10 10 10 10 10 10 
10 10 10 9 10 12 10 10 10 
10 12 11 11 11 11 11 11 11 
11 11 11 11 11 11 11 11 11 
11 11 10 10 11 11 10 10 11 
11 10 10 11 11 11 11 11 11 
11 11 11 11 11 11 11 11 11 
11 11 11 11 11 10 10 10 10 
11 10 10 6 6 5 5 5 5 
5 5 5 5 5 5 5 5 5 
5 5 5 5 5 5 5 5 5 
5 7 7 7 6 6 6 6 6 
6 6 6 6 6 6 6 5 5 
5 5 5 5 5 5 5 6 6 
6 6 6 6 6 5 5 5 5 
5 4 4 4 4 4 8 8 8 
8 8 8 8 11 11 11 11 4 
4 4 4 4 4 4 4 5 4 
4 5 5 5 5 5 5 5 5 
5 5 5 5 5 5 6 5 6 
6 6 6 6 6 5 5 10 10 
10 10 10 10 11 11 8 7 12 
12 12 8 8 9 12 9 9 9 
9 9 9 9 9 10 10 11 11 
11 11 11 11 11 11 11 11 12 
12 12 12 10 10 10 10 10 10 
11 11 10 6 6 6 6 5 6 
6 5 5 5 4 7 7 8 8 
8 8 8 8 8 8 8 8 8 
8 11 11 11 11 11 11 11 11 
11 12 12 4 4 5 5 5 5 
5 5 6 6 6 6 6 6 5 
10 10 10 11 10 10 11 10 11 
11 11 11 11 11 11 11 11 7 
8 12 8 12 12 12 12 13 13 
13 13 13 13 13 13 13 13 13 
13 13 13 13 13 13 14 13 14 
13 14 13 14 14 14 14 13 13 
13 13 13 13 13 13 13 14 14 
13 14 14 13 13 14 13 13 13 
13 13 13 13 13 13 13 13 13 
13 13 9 13 13 13 13 13 13 
13 12 13 12 12 13 12 13 11 
11 11 11 11 11 11 11 11 11 
11 11 11 11 11 11 11 11 11 
11 11 11 11 11 11 11 11 11 
11 11 11 11 11 11 6 7 7 
7 8 8 8 8 8 8 8 8 
8 8 8 8 8 8 8 8 8 
8 11 11 12 11 11 11 5 5 
5 5 5 5 5 5 5 6 5 
5 5 5 6 6 6 6 6 6 
6 6 4 11 12 4 5 5 5 
5 5 5 5 5 5 5 5 5 
5 5 5 5 5 5 5 5 5 
11 11 11 5 11 11 11 11 11 
11 11 11 11 11 11 11 12 12 
12 12 12 12 12 12 12 12 12 
12 12 12 12 12 12 12 12 12 
12 12 12 13 12 13 13 13 11 
11 11 11 11 11 12 12 12 12 
12 12 12 12 12 12 8 8 8 
13 13 13 13 13 13 13 10 10 
10 9 10 10 10 9 9 9 9 
9 9 10 12 12 11 11 11 11 
9 8 9 9 9 9 9 9 9 
9 9 9 9 9 9 9 9 9 
9 9 9 9 9 9 9 9 8 
8 8 9 4 10 11 11 11 11 
11 11 11 11 5 5 5 5 5 
5 5 5 6 6 12 4 4 4 
4 11 5 5 5 5 5 5 5 
6 5 6 5 6 6 6 6 6 
6 6 6 6 6 6 6 6 6 
6 7 7 7 7 7 7 7 7 
7 7 7 7 7 7 7 7 7 
7 7 7 7 8 8 8 8 8 
8 8 8 8 8 7 7 8 7 
7 7 7 7 7 7 7 7 7 
8 11 11 11 11 11 11 11 11 
6 6 6 6 6 6 11 11 11 
11 11 12 12 12 12 12 12 12 
12 12 12 12 12 12 12 12 12 
12 12 12 12 12 12 13 13 13 
13 13 13 13 13 13 13 13 13 
13 13 13 13 13 13 13 13 13 
13 13 13 13 14 14 13 14 13 
14 14 14 14 14 14 14 14 14 
14 14 14 14 14 14 14 7 7 
12 12 12 12 12 12 12 12 12 
12 12 12 12 12 12 12 12 12 
12 12 12 12 13 13 13 12 13 
13 8 8 8 8 8 8 8 13 
13 13 13 13 13 13 12 12 11 
11 11 11 6 6 6 6 6 6 
6 6 6 6 6 6 6 6 6 
6 6 6 6 6 6 6 5 6 
6 6 6 6 6 6 6 6 6 
5 6 5 5 5 6 6 5 5 
5 5 7 7 7 7 5 5 5 
5 5 5 9 9 8 7 7 6 
6 6 6 6 6 6 6 6 6 
6 6 6 6 6 6 6 6 6 
6 6 6 4 12 12 12 12 12 
12 12 12 12 12 12 12 12 12 
12 12 12 12 12 12 12 12 12 
12 12 12 12 12 12 12 12 12 
12 12 12 12 12 12 12 11 12 
11 11 11 11 11 11 11 11 11 
11 11 11 11 11 11 11 11 11 
11 11 11 11 12 12 12 12 12 
12 11 12 12 12 12 12 12 12 
12 12 12 12 12 12 12 12 12 
12 12 12 12 12 12 12 12 12 
12 12 12 12 12 12 12 12 12 
12 12 12 12 12 12 12 12 11 
12 12 12 11 11 11 12 11 11 
11 11 11 11 11 11 11 11 11 
11 11 11 11 11 11 11 11 11 
11 11 11 11 11 10 11 11 11 
11 11 12 5 5 6 6 11 6 
6 7 7 12 12 12 12 12 12 
12 12 12 12 12 12 12 12 13 
13 12 13 13 13 13 13 13 13 
13 13 12 12 12 12 12 12 12 
8 9 9 9 9 9 9 10 10 
10 10 10 10 10 10 10 10 10 
13 13 13 13 9 9 9 13 9 
9 9 12 10 9 10 10 6 6 
6 6 6 6 6 5 5 5 5 
5 8 8 8 8 8 8 8 8 
8 8 8 8 8 8 8 8 8 
8 8 8 8 8 8 8 8 8 
8 8 8 8 8 8 8 8 8 
8 8 9 8 9 8 8 8 8 
8 9 8 9 9 8 8 9 9 
9 9 9 9 9 9 9 9 9 
9 9 9 9 9 9 9 9 9 
9 9 9 9 9 9 9 9 9 
9 9 9 9 9 9 9 9 9 
9 9 9 9 9 9 9 9 9 
9 9 9 9 9 9 9 9 9 
8 9 9 9 8 9 9 8 9 
8 8 8 8 9 9 8 8 8 
8 8 8 8 8 8 8 7 9 
5 10 5 5 10 10 10 10 10 
10 5 5 5 5 5 12 12 12 
12 12 12 12 12 12 12 12 12 
12 12 12 12 12 5 12 12 12 
12 5 5 5 5 6 6 6 6 
6 6 7 7 7 7 7 7 7 
7 7 7 7 7 7 7 7 7 
11 11 11 11 12 11 11 11 11 
11 7 7 7 7 7 12 12 12 
12 12 12 12 12 12 12 12 13 
10 10 10 10 10 10 10 10 10 
10 10 10 10 10 10 10 10 10 
13 13 13 13 13 13 13 13 13 
13 13 13 13 13 13 12 12 12 
12 12 12 12 12 12 12 12 12 
12 12 12 12 12 12 12 12 12 
12 12 12 12 12 13 13 13 13 
13 10 10 10 11 11 11 11 11 
12 12 12 11 11 11 11 11 11 
11 11 11 10 10 10 10 10 10 
10 10 10 10 10 10 10 10 6 
6 6 6 6 6 6 6 7 6 
7 6 7 7 6 6 6 6 7 
6 7 6 6 7 7 6 6 7 
6 7 7 6 7 6 6 6 5 
5 5 5 9 9 9 9 9 8 
9 9 9 9 8 8 9 8 8 
9 9 9 9 9 9 9 9 9 
9 9 9 9 9 9 9 9 9 
9 9 9 9 9 10 9 9 9 
9 9 9 10 10 10 10 7 7 
7 7 7 7 7 7 7 7 7 
7 7 7 7 7 7 7 7 7 
7 7 7 7 7 7 7 7 7 
7 7 7 7 7 7 7 7 7 
7 7 7 7 7 7 7 7 7 
7 7 7 7 7 7 7 7 7 
7 7 7 7 7 7 7 7 7 
7 7 7 7 7 7 7 7 7 
7 7 7 7 7 7 7 7 7 
7 7 7 7 7 7 7 7 7 
7 7 9 9 9 9 9 9 9 
9 9 9 9 9 10 10 10 9 
9 9 9 9 9 9 9 9 9 
9 9 9 9 9 9 9 9 9 
9 9 9 9 9 9 9 9 9 
9 9 9 9 9 9 10 9 9 
5 10 10 10 10 10 10 10 6 
6 6 6 6 6 6 10 11 10 
10 12 12 12 12 12 12 12 5 
5 5 5 5 5 6 6 6 6 
6 6 6 6 6 6 6 6 6 
6 6 7 7 6 7 7 7 7 
7 7 7 7 7 7 7 7 7 
7 7 8 8 7 8 8 8 8 
8 8 8 8 8 8 8 8 8 
8 8 12 12 12 12 5 5 5 
5 5 12 6 6 6 6 6 6 
6 6 6 6 6 6 7 7 7 
7 7 7 7 7 7 7 12 12 
12 12 12 11 7 7 7 7 7 
7 7 7 7 6 6 7 6 7 
7 7 7 7 12 13 13 13 13 
13 13 13 13 13 13 13 13 14 
13 13 13 14 14 14 14 14 7 
7 7 7 13 14 14 13 13 13 
13 13 13 13 13 13 13 13 13 
13 11 11 11 11 11 10 10 10 
7 7 6 7 6 7 7 7 7 
7 7 7 7 7 7 7 7 7 
8 8 8 8 8 8 7 8 8 
7 7 8 8 8 8 8 8 7 
7 7 7 7 7 7 7 7 7 
7 7 7 7 7 7 8 7 8 
8 8 8 8 8 8 8 8 8 
8 8 8 8 8 5 9 9 9 
9 9 9 9 9 9 7 10 10 
10 10 10 10 11 11 6 5 6 
6 5 5 5 12 12 12 6 6 
6 6 6 6 6 6 6 12 6 
7 7 12 12 13 13 13 13 13 
13 13 13 13 13 13 13 13 13 
13 13 13 12 12 12 11 11 11 
11 11 12 12 11 12 12 12 11 
12 12 12 11 6 7 6 9 9 
9 9 6 6 6 6 6 6 6 
6 6 11 11 6 6 6 6 5 
6 6 6 6 6 6 6 6 6 
7 6 6 7 7 7 7 7 6 
7 7 7 7 7 7 7 7 7 
7 5 5 5 6 6 5 6 6 
6 6 6 6 6 6 6 6 6 
6 6 6 6 6 11 12 12 11 
12 11 11 11 11 11 11 11 11 
11 5 12 12 12 13 12 12 6 
12 6 12 12 12 7 7 13 13 
13 13 14 13 13 13 14 14 14 
14 14 14 14 14 13 13 13 13 
13 12 10 10 10 10 10 10 10 
10 10 10 10 10 10 10 11 11 
11 11 11 11 11 11 11 11 11 
11 11 11 11 11 11 11 11 12 
12 12 12 12 12 12 11 11 6 
6 7 7 7 7 7 9 9 10 
10 9 9 9 10 6 6 6 6 
6 6 10 10 10 10 10 10 10 
10 10 10 10 10 10 10 10 10 
10 10 10 10 10 10 10 6 6 
12 12 12 12 12 12 12 12 12 
12 13 12 12 12 13 12 12 12 
12 12 13 13 6 6 6 6 12 
13 13 12 7 8 8 8 8 8 
8 8 8 8 8 8 8 8 8 
8 8 8 8 8 8 8 13 13 
13 8 8 8 8 8 8 8 8 
8 8 8 8 8 8 8 8 8 
8 8 8 8 8 8 13 13 13 
14 14 13 14 14 8 11 9 9 
9 9 9 9 8 8 8 8 8 
8 7 7 7 7 6 6 6 6 
10 10 10 10 10 10 10 10 10 
10 8 8 8 11 11 11 11 11 
11 6 6 6 7 7 7 7 7 