# vtk DataFile Version 4.2
vtk output
ASCII
DATASET POLYDATA
POINTS 3 float
-32.4507 7.2117 121.947 -16.2084 -19.919 108.995 -21.1828 -28.7431 67.9865 

VERTICES 3 6
1 0 
1 1 
1 2 

POINT_DATA 3
FIELD FieldData 1
seed_label 1 3 double
0 1 2 
