# vtk DataFile Version 4.2
vtk output
ASCII
DATASET POLYDATA
POINTS 3 float
-33.2918 7.65507 121.95 -16.0882 -20.6481 108.756 -20.7672 -29.2502 68.9179 

VERTICES 3 6
1 0 
1 1 
1 2 

POINT_DATA 3
FIELD FieldData 1
seed_label 1 3 double
0 1 2 
