# vtk DataFile Version 5.1
vtk output
ASCII
DATASET POLYDATA
POINTS 3 float
-34.1005 7.92596 120.291 -15.3906 -19.0405 107.102 -21.9751 -29.3689 68.1517 

VERTICES 4 3
OFFSETS vtktypeint64
0 1 2 3 
CONNECTIVITY vtktypeint64
0 1 2 
POINT_DATA 3
FIELD FieldData 1
seed_label 1 3 double
0 1 2 
