# vtk DataFile Version 5.1
vtk output
ASCII
DATASET POLYDATA
POINTS 10000 float
0.0419696 -0.0271789 0 0.0483014 -0.0242569 0 0.0469349 -0.0227751 0 
0.0439275 -0.0238867 0 0.039766 -0.0303118 0 0.0422819 -0.0291083 0 
0.00382785 -0.0498534 0 3.65711e-07 -0.0500001 0 0.00150648 -0.0516892 0 
0.0419757 0.0271756 0 0.0439316 0.0238838 0 0.0508201 0.0351351 0 
0.049967 -0.00191651 0 0.0496717 -0.00573476 0 0.057882 0.00414681 0 
0.0579025 0.000616198 0 0.0482145 -0.0132498 0 0.0545288 -0.00522275 0 
0.0490888 -0.00952081 0 0.0576037 0.0123144 0 0.0496753 0.00573224 0 
0.0499664 0.00191398 0 0.0236145 -0.0458183 0 0.0221866 -0.0448085 0 
0.0186914 -0.0463753 0 0.0211834 -0.0474945 0 0.0150866 -0.04767 0 
0.0178422 -0.0484566 0 0.0141232 -0.0498152 0 0.0113932 -0.0486849 0 
0.00990904 -0.0508424 0 0.0076329 -0.0494142 0 -0.0057343 -0.0528468 0 
-0.00295449 -0.0510933 0 -0.0066098 -0.050949 0 -0.00382713 -0.0498534 0 
-0.00763213 -0.0494141 0 0.0287746 0.0408933 0 0.031821 0.0385712 0 
0.0341229 0.0460361 0 -0.00189892 -0.052621 0 -0.0499625 -0.00191542 0 
-0.0499626 0.00191486 0 -0.0505032 0.000469876 0 -0.0487288 0.0140917 0 
-0.0482118 0.0132488 0 -0.0470561 0.0169005 0 -0.0287645 0.0408959 0 
-0.0257748 0.0433433 0 -0.028619 0.0418446 0 -0.0255494 0.0429779 0 
-0.0321112 0.0391092 0 -0.0318108 0.038574 0 -0.0346713 -0.0360262 0 
-0.037327 -0.0332665 0 -0.0352444 -0.0355847 0 -0.0359612 0.0357254 0 
-0.0373265 0.0332659 0 -0.0346704 0.0360256 0 -0.0388727 0.0328901 0 
-0.0399908 0.0309083 0 -0.0397636 0.0303109 0 -0.045348 0.0228055 0 
-0.0456242 0.0204531 0 -0.0439246 0.0238856 0 -0.0413636 -0.0287058 0 
-0.0394102 -0.0309796 0 -0.0419675 -0.0271787 0 -0.0397641 -0.0303115 0 
-0.043925 -0.0238862 0 -0.0456245 -0.0204537 0 -0.0451963 -0.0226568 0 
0.0516343 -0.21189 0 0.04653 -0.209828 0 0.0407292 -0.220997 0 
0.0377879 -0.217257 0 0.0488297 -0.276457 0 0.053161 -0.271541 0 
0.045739 -0.275437 0 0.0522019 -0.268673 0 0.0433014 -0.275 0 
0.0454818 -0.270771 0 0.040729 -0.279003 0 0.0428464 -0.279196 0 
0.0433017 -0.225 0 0.0398006 -0.285113 0 0.0377876 -0.282743 0 
0.0345041 -0.286187 0 0.0550044 -0.232015 0 0.0485909 -0.238212 0 
0.0558295 -0.236588 0 0.0494914 -0.242884 0 0.0258207 -0.294805 0 
0.0185832 -0.296418 0 0.019936 -0.297309 0 0.0140867 -0.297975 0 
0.0229114 -0.294442 0 0.0270321 -0.292063 0 0.0263963 -0.203056 0 
0.0229117 -0.205558 0 0.0270325 -0.207937 0 0.0185835 -0.203582 0 
0.00475285 -0.299774 0 0.00154694 -0.300602 0 0.00587485 -0.300497 0 
4.4215e-08 -0.3 0 -0.00475276 -0.299774 0 -0.00669523 -0.300645 0 
-0.0270318 -0.207937 0 -0.0229111 -0.205558 0 -0.0229491 -0.198037 0 
-0.0047525 -0.200227 0 0.000344857 -0.196099 0 -0.00259336 -0.193313 0 
2.90983e-07 -0.2 0 -0.00946225 -0.200904 0 -0.0300607 -0.291495 0 
-0.0229112 -0.294442 0 -0.0270321 -0.292063 0 -0.0192609 -0.199911 0 
-0.0185829 -0.203582 0 -0.0309078 -0.289303 0 -0.0380347 -0.28467 0 
-0.0433013 -0.275 0 -0.0466494 -0.27146 0 -0.0407288 -0.279003 0 
-0.0491639 -0.265487 0 -0.0530631 -0.261813 0 -0.0454814 -0.270771 0 
-0.0189984 -0.19491 0 -0.0538313 -0.24173 0 -0.0529425 -0.248105 0 
-0.0499433 -0.252379 0 -0.0494909 -0.257116 0 -0.0424067 -0.215126 0 
-0.043301 -0.225 0 -0.0407286 -0.220997 0 -0.0499433 -0.247621 0 
-0.0516485 -0.237013 0 -0.0515558 -0.244222 0 -0.049491 -0.242884 0 
-0.050355 -0.23172 0 0.205082 -0.280651 0 0.209228 -0.27585 0 
0.203038 -0.276735 0 0.211765 -0.278844 0 0.198472 -0.281537 0 
0.198878 -0.286637 0 0.205568 -0.285109 0 0.185537 -0.290133 0 
0.187484 -0.293376 0 0.192901 -0.289571 0 0.179638 -0.292747 0 
0.173315 -0.292555 0 0.170544 -0.297078 0 0.176408 -0.297007 0 
0.161654 -0.295555 0 0.167559 -0.294407 0 0.164251 -0.291396 0 
0.169047 -0.289708 0 0.164597 -0.298256 0 0.165666 -0.301807 0 
0.171407 -0.300793 0 0.16938 -0.305267 0 0.177273 -0.301921 0 
0.183566 -0.297805 0 0.180641 -0.304596 0 0.188836 -0.302097 0 
0.197461 -0.299235 0 0.191933 -0.296086 0 0.198649 -0.292785 0 
0.205444 -0.295559 0 0.198956 -0.305094 0 0.207271 -0.300953 0 
0.212719 -0.294182 0 0.220072 -0.298743 0 0.21429 -0.305398 0 
0.204938 -0.308224 0 0.211854 -0.312983 0 0.223654 -0.306054 0 
0.224258 -0.313157 0 0.214664 -0.320643 0 0.239083 -0.31903 0 
0.236881 -0.311356 0 0.22513 -0.32173 0 0.25412 -0.311256 0 
0.245597 -0.302475 0 0.251983 -0.29261 0 0.258634 -0.300506 0 
0.240307 -0.296452 0 0.24171 -0.287576 0 0.260739 -0.272303 0 
0.252929 -0.282783 0 0.266992 -0.278044 0 0.265186 -0.289318 0 
0.245244 -0.264747 0 0.241781 -0.271492 0 0.250762 -0.273459 0 
0.240794 -0.27875 0 0.233685 -0.273085 0 0.229819 -0.279697 0 
0.2282 -0.272162 0 0.223028 -0.277608 0 0.214084 -0.283131 0 
0.217504 -0.27886 0 0.204794 -0.290612 0 0.21147 -0.28766 0 
0.207661 -0.272067 0 0.213183 -0.269954 0 0.208203 -0.266948 0 
0.203513 -0.26992 0 0.207361 -0.260951 0 0.212362 -0.263024 0 
0.202068 -0.265589 0 0.201281 -0.259106 0 0.198301 -0.263307 0 
0.193779 -0.261589 0 0.195608 -0.257273 0 0.190529 -0.257016 0 
0.189372 -0.260958 0 0.19907 -0.248718 0 0.193766 -0.252816 0 
0.199232 -0.253461 0 0.187783 -0.254555 0 0.19105 -0.250469 0 
0.185808 -0.251841 0 0.189031 -0.247379 0 0.18256 -0.250023 0 
0.186149 -0.244847 0 0.184312 -0.240916 0 0.191909 -0.236743 0 
0.184906 -0.236298 0 0.197972 -0.232093 0 0.190766 -0.230168 0 
0.184717 -0.228022 0 0.181076 -0.234578 0 0.210275 -0.220083 0 
0.210828 -0.213113 0 0.203202 -0.218698 0 0.195821 -0.216602 0 
0.203785 -0.21236 0 0.220692 -0.21174 0 0.216421 -0.217961 0 
0.223286 -0.217012 0 0.23081 -0.21302 0 0.225886 -0.222761 0 
0.22512 -0.231533 0 0.231503 -0.225605 0 0.222173 -0.238639 0 
0.218063 -0.232867 0 0.213543 -0.238307 0 0.204844 -0.249268 0 
0.19741 -0.269793 0 0.200228 -0.27367 0 0.193958 -0.266572 0 
0.19111 -0.270534 0 0.217745 -0.27307 0 0.217766 -0.265449 0 
0.217981 -0.260276 0 0.221706 -0.254607 0 0.214802 -0.25687 0 
0.216559 -0.251673 0 0.226284 -0.247005 0 0.227482 -0.25235 0 
0.218774 -0.246058 0 0.211662 -0.248754 0 0.208016 -0.243585 0 
0.215046 -0.242799 0 0.225966 -0.268603 0 0.222459 -0.266945 0 
0.231963 -0.261349 0 0.235944 -0.265929 0 0.240189 -0.257592 0 
0.232177 -0.254126 0 0.241561 -0.250308 0 0.251014 -0.249555 0 
0.250113 -0.257611 0 0.24597 -0.242849 0 0.255518 -0.240063 0 
0.254547 -0.234112 0 0.266878 -0.23566 0 0.264012 -0.227927 0 
0.261712 -0.244868 0 0.270877 -0.246422 0 0.277893 -0.231716 0 
0.279023 -0.251789 0 0.280587 -0.239185 0 0.2904 -0.2416 0 
0.287672 -0.25622 0 0.301479 -0.245521 0 0.299408 -0.258556 0 
0.308931 -0.264876 0 0.316671 -0.250066 0 0.313155 -0.237152 0 
0.317811 -0.271517 0 0.329326 -0.255469 0 0.33124 -0.274103 0 
0.346691 -0.264819 0 0.349786 -0.249113 0 0.340857 -0.238625 0 
0.375535 -0.240069 0 0.357928 -0.236453 0 0.36299 -0.255867 0 
0.364956 -0.225084 0 0.382373 -0.217066 0 0.353237 -0.216649 0 
0.370346 -0.208823 0 0.385762 -0.197177 0 0.397832 -0.205784 0 
0.363076 -0.19967 0 0.375609 -0.185299 0 0.395772 -0.181056 0 
0.382263 -0.16986 0 0.400694 -0.163891 0 0.387777 -0.151031 0 
0.406056 -0.147437 0 0.388793 -0.131408 0 0.40148 -0.134635 0 
0.42009 -0.130516 0 0.410862 -0.117303 0 0.440524 -0.0938786 0 
0.422223 -0.100763 0 0.433883 -0.113882 0 0.414344 -0.0806406 0 
0.428086 -0.0824305 0 0.401418 -0.103432 0 0.396008 -0.0902036 0 
0.379235 -0.108845 0 0.379837 -0.0957881 0 0.361428 -0.106206 0 
0.363067 -0.117045 0 0.346191 -0.116647 0 0.329358 -0.118483 0 
0.341223 -0.130164 0 0.337795 -0.107439 0 0.326124 -0.130684 0 
0.313681 -0.123495 0 0.310184 -0.135117 0 0.315836 -0.144159 0 
0.301609 -0.146517 0 0.30486 -0.155943 0 0.291392 -0.153763 0 
0.29459 -0.166357 0 0.2849 -0.164605 0 0.306849 -0.164956 0 
0.284163 -0.174493 0 0.288331 -0.179842 0 0.270656 -0.167514 0 
0.275813 -0.173293 0 0.27422 -0.18395 0 0.259794 -0.171895 0 
0.26665 -0.177594 0 0.253686 -0.179593 0 0.261424 -0.18591 0 
0.244307 -0.185399 0 0.244892 -0.176501 0 0.234924 -0.190161 0 
0.234856 -0.183707 0 0.238119 -0.19531 0 0.226221 -0.193111 0 
0.226611 -0.184429 0 0.227348 -0.199414 0 0.211312 -0.197438 0 
0.216872 -0.200157 0 0.219738 -0.191625 0 0.224517 -0.205832 0 
0.215363 -0.206977 0 0.224552 -0.260546 0 0.22832 -0.241013 0 
0.237524 -0.238401 0 0.231161 -0.233841 0 0.237758 -0.230729 0 
0.245865 -0.235507 0 0.246261 -0.227061 0 0.239886 -0.222902 0 
0.2542 -0.227191 0 0.274439 -0.223688 0 0.26868 -0.217629 0 
0.285587 -0.21964 0 0.296887 -0.208414 0 0.285753 -0.211635 0 
0.286556 -0.202921 0 0.29659 -0.195754 0 0.287874 -0.193424 0 
0.281427 -0.189782 0 0.294378 -0.184955 0 0.209987 -0.255508 0 
0.205309 -0.254371 0 0.298087 -0.276538 0 0.279459 -0.27823 0 
0.280299 -0.288281 0 0.271201 -0.299439 0 0.289466 -0.26966 0 
0.276017 -0.266536 0 0.267658 -0.259998 0 0.260356 -0.254507 0 
0.255987 -0.2643 0 0.236015 -0.245586 0 0.312505 -0.283834 0 
0.296072 -0.287961 0 0.305072 -0.297273 0 0.285172 -0.297474 0 
0.271385 -0.308392 0 0.249102 -0.322422 0 0.228289 -0.329938 0 
0.21473 -0.332679 0 0.197918 -0.326362 0 0.207324 -0.328722 0 
0.205178 -0.320647 0 0.186935 -0.324593 0 0.194128 -0.320499 0 
0.187855 -0.316968 0 0.178961 -0.322778 0 0.190927 -0.307155 0 
0.195165 -0.312261 0 0.183311 -0.31351 0 0.346812 -0.281162 0 
0.323853 -0.292842 0 0.291415 -0.306048 0 0.289938 -0.324025 0 
0.306881 -0.309399 0 0.301756 -0.320627 0 0.283555 -0.315972 0 
0.257923 -0.351438 0 0.270927 -0.352598 0 0.267978 -0.341386 0 
0.284582 -0.352048 0 0.281571 -0.342302 0 0.257064 -0.361349 0 
0.242168 -0.359206 0 0.249327 -0.372015 0 0.233673 -0.371449 0 
0.266318 -0.368905 0 0.268996 -0.382807 0 0.250154 -0.382445 0 
0.254836 -0.390766 0 0.231825 -0.382314 0 0.233787 -0.396252 0 
0.249362 -0.403065 0 0.234397 -0.413182 0 0.216531 -0.407028 0 
0.213717 -0.42851 0 0.23069 -0.427426 0 0.197935 -0.413815 0 
0.196495 -0.429753 0 0.193664 -0.446816 0 0.178942 -0.43737 0 
0.168243 -0.452076 0 0.188548 -0.463087 0 0.146893 -0.448278 0 
0.138995 -0.462348 0 0.165954 -0.471656 0 0.122404 -0.447815 0 
0.10331 -0.450143 0 0.114249 -0.464778 0 0.126593 -0.416965 0 
[...]
POINT_DATA 10000
FIELD FieldData 1
lines 1 10000 double
7 6 7 7 7 7 7 8 7 
8 8 8 7 7 7 7 7 7 
7 7 7 7 7 7 7 7 7 
7 7 7 7 7 8 8 8 8 
8 9 9 9 7 10 10 10 11 
10 11 11 11 11 11 11 11 9 
9 9 11 11 11 11 11 11 11 
11 11 9 9 9 9 9 9 9 
2 2 2 2 2 2 2 2 2 
2 2 2 2 2 2 2 2 2 
2 2 3 3 3 3 3 3 3 
3 3 3 3 3 3 4 4 4 
5 4 5 4 4 4 4 4 4 
4 4 4 4 5 5 5 5 5 
5 5 5 5 6 6 6 6 5 
5 5 6 6 6 6 6 2 2 
2 2 2 2 2 2 2 2 2 
2 2 2 2 2 2 2 2 2 
2 2 2 2 3 3 3 3 3 
3 3 3 3 3 3 3 3 3 
3 3 3 3 3 3 3 3 3 
3 3 2 3 3 3 2 2 2 
2 2 2 2 2 2 2 2 2 
2 2 2 2 2 2 2 1 2 
1 1 1 1 1 1 1 1 1 
1 1 1 1 1 1 0 1 1 
0 0 1 1 1 0 1 1 1 
1 1 1 1 1 1 1 1 1 
2 2 2 2 2 2 2 2 2 
1 2 2 1 1 1 1 2 2 
2 2 2 2 2 2 2 2 2 
2 2 2 2 2 2 2 2 2 
3 3 3 3 3 3 3 3 3 
3 3 3 3 3 3 3 3 3 
3 3 3 3 3 3 3 3 3 
3 3 3 3 3 3 3 3 3 
3 3 3 3 3 3 3 3 3 
3 3 2 2 2 2 2 2 2 
2 2 2 2 2 2 2 2 2 
2 1 2 1 1 1 1 1 1 
1 1 1 1 1 1 1 2 1 
2 1 1 2 2 1 2 2 2 
2 2 2 2 2 2 2 2 1 
1 3 3 3 3 3 3 2 2 
2 2 3 3 3 3 3 3 3 
3 3 3 3 3 3 3 3 3 
3 3 3 3 3 3 3 3 3 
4 4 4 4 4 4 4 4 4 
4 4 4 4 4 4 4 4 4 
4 4 4 5 5 5 5 5 5 
5 5 5 5 5 4 4 4 4 
4 4 4 4 4 4 4 4 4 
4 4 4 4 4 4 4 4 4 
4 4 4 4 3 3 3 3 4 
3 4 4 4 4 4 3 3 4 
3 4 3 4 4 4 4 4 4 
4 4 4 4 4 4 4 4 4 
4 4 4 5 5 5 5 5 5 
5 5 5 5 5 5 5 5 5 
5 5 5 5 5 5 5 5 5 
5 5 5 5 5 5 5 5 5 
5 5 5 5 5 5 6 5 6 
5 5 5 6 6 6 6 6 6 
6 6 6 6 6 6 6 6 6 
6 6 6 6 6 6 6 6 6 
6 7 6 6 6 6 10 10 11 
10 11 10 11 11 11 11 11 11 
10 11 11 10 10 10 10 10 10 
10 10 10 10 10 9 10 9 9 
10 10 10 9 9 9 9 9 9 
9 9 9 9 9 9 9 9 9 
9 8 8 9 8 8 8 8 8 
8 8 8 8 8 7 3 3 3 
3 3 3 3 3 2 2 3 3 
2 3 2 2 2 2 2 2 2 
2 2 2 2 2 3 3 3 2 
2 3 3 3 3 3 4 4 4 
4 4 4 4 4 4 4 2 2 
2 2 2 2 2 2 2 2 2 
2 2 2 1 2 2 2 2 2 
2 2 2 2 2 2 2 2 2 
2 2 2 2 2 2 2 2 2 
2 2 2 1 2 1 2 1 2 
1 1 1 2 1 1 1 1 1 
1 1 1 1 1 1 1 1 1 
1 1 1 1 1 1 1 1 1 
1 1 1 1 1 1 1 1 2 
2 1 2 2 2 2 2 2 2 
2 3 2 2 3 3 3 3 3 
3 3 3 3 3 4 3 3 3 
5 5 5 5 5 5 5 5 5 
5 6 5 5 6 6 5 6 6 
6 5 6 5 5 5 5 5 5 
5 5 5 5 5 5 4 5 4 
4 5 4 4 4 4 4 4 4 
4 4 4 4 4 4 4 4 4 
4 4 4 4 4 4 4 4 4 
4 4 4 5 5 4 5 5 5 
5 5 5 5 5 5 5 5 5 
5 6 6 6 6 6 6 6 6 
6 6 6 6 6 6 6 6 6 
6 6 6 6 6 6 6 6 5 
5 5 5 5 5 5 5 5 5 
5 5 5 5 5 5 5 5 4 
4 4 4 4 4 4 4 4 4 
4 4 4 4 4 3 4 3 4 
3 3 3 3 3 3 3 3 3 
3 3 3 3 3 3 3 3 3 
3 2 2 2 3 2 2 2 2 
2 2 2 2 2 2 2 2 1 
1 1 1 1 1 1 1 2 2 
1 1 1 1 2 1 1 1 2 
1 1 1 1 1 1 1 1 1 
1 1 1 1 1 1 1 1 1 
1 1 1 1 1 1 1 2 2 
2 2 2 2 2 2 2 2 3 
3 3 1 1 1 1 1 1 1 
1 1 1 1 1 1 1 1 1 
1 3 2 3 1 1 1 0 1 
1 3 3 3 3 3 4 4 4 
4 3 4 4 4 4 4 3 3 
3 4 4 4 2 2 2 2 2 
2 2 2 1 1 1 1 8 8 
8 8 8 8 8 8 8 8 8 
8 8 8 8 8 8 8 8 8 
8 8 8 8 8 8 8 8 8 
8 8 8 8 8 7 7 7 8 
8 8 8 8 8 7 7 8 8 
8 8 8 8 8 8 8 8 8 
8 8 8 8 8 8 8 8 8 
8 8 8 8 8 8 8 8 9 
8 11 11 11 11 11 11 11 11 
11 11 11 11 11 11 11 11 12 
12 11 12 12 12 12 12 12 12 
12 12 12 12 12 12 12 12 12 
12 13 13 12 12 13 12 13 13 
13 12 13 13 13 13 13 13 13 
13 13 13 13 13 13 13 13 13 
13 13 13 13 13 13 13 13 13 
13 13 13 13 13 13 13 13 13 
13 13 13 13 13 13 13 13 13 
13 13 13 13 13 13 13 13 13 
13 13 13 13 13 13 13 13 13 
13 13 13 13 13 13 13 13 13 
13 13 13 13 13 13 13 13 13 
13 13 13 13 13 13 13 13 13 
13 13 13 13 13 13 12 12 13 
12 12 12 12 12 12 12 12 12 
12 12 12 11 11 11 11 11 11 
11 11 11 11 11 11 11 11 11 
11 11 11 11 11 11 11 11 11 
10 10 10 10 10 10 10 10 10 
10 10 10 10 10 10 10 10 10 
10 10 10 10 10 10 10 10 10 
10 10 10 10 10 10 10 10 10 
10 10 10 10 10 10 10 10 10 
10 10 10 10 10 10 10 10 10 
11 11 11 11 11 11 11 11 11 
11 11 11 11 11 11 11 11 11 
11 12 12 12 12 12 11 12 12 
12 12 12 12 12 12 12 12 12 
12 12 12 12 11 12 11 12 12 
12 12 11 12 11 12 12 12 12 
12 12 12 12 12 12 12 12 12 
12 12 12 12 12 12 13 13 13 
13 13 12 13 13 12 12 12 12 
12 12 12 12 12 12 12 12 12 
12 12 12 12 12 12 12 12 12 
12 12 12 12 12 12 12 12 12 
12 12 12 12 12 12 12 12 12 
12 11 11 11 11 11 11 11 11 
11 4 4 4 4 3 3 3 3 
2 3 3 3 3 3 3 3 3 
3 3 3 3 3 3 3 3 3 
3 3 3 3 3 3 3 3 3 
3 3 3 3 3 3 3 3 3 
3 3 3 3 3 3 3 3 3 
3 3 3 3 3 3 3 3 3 
3 3 3 3 3 3 3 3 3 
2 2 2 3 2 3 2 2 2 
2 2 2 3 3 2 3 2 2 
2 2 3 3 3 3 3 3 3 
3 3 3 3 3 3 3 3 4 
4 4 4 4 4 4 4 4 4 
4 4 4 5 5 5 5 5 5 
5 5 5 5 5 5 5 4 4 
4 4 4 4 4 4 4 4 4 
4 4 4 4 4 4 4 3 3 
3 3 3 3 2 3 3 3 3 
3 3 4 1 1 1 1 1 1 
1 1 1 1 1 4 4 4 4 
4 4 4 4 4 4 1 2 2 
2 6 5 6 6 6 6 6 6 
6 6 6 7 7 7 6 6 7 
6 6 6 6 6 6 6 6 6 
6 6 6 6 6 6 6 6 5 
5 3 3 3 3 3 3 3 3 
3 3 3 3 3 3 3 3 3 
3 3 3 3 3 3 3 3 3 
3 3 3 3 3 3 3 3 2 
2 2 2 2 2 2 2 2 4 
4 4 4 4 4 4 4 4 4 
4 4 4 4 4 4 4 4 4 
4 4 4 4 4 4 4 4 4 
4 4 4 4 4 4 5 5 5 
5 5 5 5 5 5 3 4 4 
4 4 4 4 2 3 2 3 1 
1 1 3 3 3 3 3 3 4 
4 3 4 4 3 4 4 0 0 
0 1 1 1 1 0 1 0 1 
0 0 0 0 0 0 0 0 0 
0 0 0 0 0 0 0 0 0 
0 0 0 0 0 0 0 0 0 
1 1 1 0 1 0 0 0 1 
0 1 0 1 0 0 0 0 0 
0 0 0 0 0 0 0 0 0 
0 0 0 0 0 4 4 4 0 
4 5 5 4 1 1 1 2 2 
2 2 2 2 2 2 2 2 2 
2 2 2 2 2 2 2 2 2 
2 2 1 2 2 2 2 2 2 
2 2 2 2 2 2 2 2 2 
2 3 3 3 3 3 3 2 2 
2 2 2 2 2 3 3 3 4 
3 3 4 3 4 3 3 4 3 
3 3 3 3 3 3 3 3 3 
3 3 3 3 3 3 3 3 3 
3 4 3 4 4 4 4 4 4 
4 4 4 4 4 4 4 4 4 
4 4 4 4 5 5 5 5 5 
5 5 5 5 5 5 5 5 3 
3 3 2 2 4 4 4 4 4 
4 4 4 4 4 4 4 4 4 
4 4 3 4 4 4 4 4 4 
5 4 4 4 4 4 5 4 4 
5 5 4 5 4 4 4 4 4 
3 3 3 3 3 3 3 3 3 
3 3 3 3 3 3 3 2 3 
3 3 3 3 3 3 4 3 4 
4 4 4 4 4 4 4 4 4 
4 4 4 4 4 4 4 4 5 
5 5 5 4 5 5 1 1 1 
1 1 1 4 1 4 4 0 0 
0 0 0 0 0 0 0 0 0 
0 0 0 0 0 0 1 1 0 
0 0 0 0 0 0 0 0 0 
2 1 1 1 1 1 1 1 1 
1 1 1 1 1 1 1 1 1 
1 1 1 1 1 1 1 1 1 
2 1 2 2 2 2 2 2 2 
2 2 2 2 2 2 2 2 2 
2 2 1 1 1 1 1 1 0 
0 0 0 0 2 2 2 3 3 
3 3 2 2 2 3 2 3 2 
2 2 2 3 3 5 5 3 3 
3 4 2 2 2 2 2 3 3 
2 2 3 2 2 2 2 4 4 
4 4 4 5 5 5 5 5 5 
5 5 2 2 2 1 0 0 0 
0 0 0 4 4 4 0 0 1 
1 1 1 1 1 1 1 1 1 
1 1 1 1 1 1 1 1 1 
1 1 1 1 1 1 2 1 2 
2 2 2 2 2 2 2 2 2 
2 2 2 5 5 5 5 5 5 
5 5 5 5 5 4 4 4 4 
4 4 4 4 4 4 4 3 4 
4 4 4 4 3 4 4 4 4 
4 4 4 4 4 4 4 4 4 
4 4 5 5 4 5 5 5 5 
5 5 5 5 5 5 5 5 5 
5 5 5 5 5 5 2 2 4 
4 1 1 0 0 0 0 0 0 
0 1 1 1 1 1 1 1 1 
2 2 2 2 2 2 2 2 2 
2 2 5 3 3 3 3 3 4 
4 4 4 4 4 4 4 4 3 
3 3 3 3 3 3 3 4 1 
1 1 1 1 1 1 1 1 1 
1 0 0 0 0 0 0 0 0 
0 0 1 1 2 2 5 5 5 
5 5 6 5 5 5 5 5 5 
4 4 4 4 4 4 3 6 6 
6 6 6 3 3 3 3 3 2 
2 2 2 2 2 2 2 2 3 
3 2 2 2 2 2 2 2 2 
2 2 2 2 2 2 2 2 2 
2 2 2 2 2 2 2 2 2 
2 2 2 2 2 2 2 2 2 
2 2 5 1 0 1 0 0 0 
0 0 0 1 1 0 0 1 0 
0 1 1 1 1 1 1 1 1 
1 1 1 1 1 1 1 1 1 
1 2 2 2 2 0 0 0 1 
1 0 1 1 1 1 1 1 1 
1 1 1 1 2 2 3 7 7 
7 7 7 7 7 7 7 7 7 
7 7 7 7 7 7 7 7 7 
7 7 7 7 7 7 7 7 7 
7 7 7 7 7 7 7 7 7 
7 7 7 7 7 7 7 7 7 
7 7 7 7 7 7 7 7 7 
7 7 7 8 8 7 8 8 7 
8 8 8 8 8 4 4 4 4 
6 6 4 4 4 4 4 4 4 
4 4 5 5 5 5 5 5 5 
5 4 4 3 4 3 3 3 3 
3 3 2 2 5 5 5 5 5 
1 1 1 0 1 0 1 1 1 
1 1 1 1 0 0 0 1 6 
6 6 7 7 7 6 6 6 6 
6 6 6 6 4 4 4 4 4 
4 4 4 4 4 3 4 4 4 
4 4 4 4 4 4 4 4 3 
2 3 2 2 2 2 2 2 2 
2 3 3 3 3 3 3 3 3 
3 3 3 4 3 4 4 3 4 
3 4 4 4 4 4 4 4 4 
5 5 1 1 1 1 2 2 1 
2 2 2 2 2 2 2 2 5 
1 1 1 1 1 1 1 1 1 
1 1 1 1 1 1 1 1 1 
1 2 2 1 1 1 1 1 1 
2 1 2 1 1 1 1 1 1 
2 2 2 2 2 2 2 2 2 
2 2 2 2 3 3 2 2 3 
2 2 2 2 2 2 2 2 2 
2 3 4 3 3 4 3 4 5 
5 4 4 6 5 5 5 5 5 
5 5 5 5 4 3 3 3 3 
3 2 3 3 3 3 3 5 2 
2 2 2 2 2 2 2 2 2 
2 2 2 2 2 2 2 2 2 
2 2 2 3 3 3 3 3 3 
3 3 3 1 1 1 1 1 1 
1 1 1 1 1 2 2 2 2 
2 2 3 3 3 5 7 7 7 
7 7 7 7 7 7 7 7 7 
7 6 6 6 6 7 7 7 7 
7 7 6 6 6 7 6 6 6 
6 6 6 6 6 6 6 6 6 
6 6 6 6 6 6 6 6 6 
6 6 6 6 6 6 6 6 6 
6 6 6 6 6 6 6 6 6 
7 7 6 6 5 5 5 5 7 
6 6 6 6 6 6 6 6 6 
6 6 6 7 7 7 7 7 7 
7 7 7 7 3 3 3 3 3 
3 3 3 4 4 4 4 4 4 
4 4 4 4 4 4 4 4 4 
4 4 4 4 5 5 5 2 2 
2 2 2 1 1 1 1 1 1 
1 1 1 1 1 2 2 1 2 
2 2 2 2 3 3 3 3 3 
4 4 4 4 4 4 4 4 4 
4 8 8 5 5 5 5 5 6 
6 7 7 7 7 6 6 6 6 
6 6 6 6 6 6 6 6 6 
6 6 6 6 6 7 8 7 7 
7 7 7 7 7 7 7 7 7 
7 7 7 7 7 7 6 6 8 
7 7 8 8 8 4 4 4 4 
4 4 2 2 2 2 2 2 2 
2 2 2 2 2 2 3 3 2 
3 3 1 1 3 3 3 3 3 
3 4 3 4 4 4 4 4 4 
4 4 4 4 4 4 5 5 4 
5 5 5 5 5 5 5 5 5 
5 5 5 5 5 6 6 6 6 
6 6 6 6 6 6 6 6 6 
6 6 6 6 7 7 7 7 7 
7 7 7 7 7 7 7 7 7 
7 7 7 7 7 7 8 4 4 
4 4 8 8 8 5 5 8 8 
8 8 8 8 8 8 8 8 8 
8 8 8 8 8 8 8 8 8 
8 8 8 8 8 8 8 8 8 
8 8 8 9 8 9 9 8 9 
9 8 8 8 8 8 8 8 8 
6 6 6 6 6 6 6 6 6 
6 6 6 6 6 6 6 6 6 
6 8 11 11 11 11 11 11 11 
11 11 11 11 11 11 11 11 10 
11 10 10 10 10 10 10 10 10 
10 10 10 10 10 10 10 10 10 
10 10 9 9 9 9 9 9 9 
9 9 9 9 9 9 9 9 9 
8 9 8 8 8 8 8 8 8 
8 8 11 11 11 11 11 11 12 
11 11 12 12 12 11 12 12 11 
11 11 12 11 12 11 12 12 12 
12 11 12 12 11 12 11 11 12 
11 11 11 12 12 11 12 12 12 
12 12 12 12 12 12 12 12 12 
12 12 12 12 12 12 12 12 12 
12 12 11 11 11 11 11 11 11 
11 11 11 11 11 11 11 11 11 
11 11 11 11 11 11 11 11 11 
11 11 11 11 11 11 11 11 11 
12 12 11 12 12 12 12 12 12 
12 11 11 11 11 11 11 11 11 
11 11 11 11 11 11 11 11 11 
11 11 11 11 11 11 11 11 11 
11 11 11 11 11 12 12 12 12 
12 12 12 12 12 12 12 12 12 
12 12 12 12 12 12 12 12 12 
12 12 12 12 12 12 12 12 12 
12 12 12 12 12 12 12 12 12 
12 12 5 5 5 5 5 5 5 
4 5 4 5 5 4 4 4 5 
4 4 4 4 4 4 4 4 6 
6 6 6 6 6 6 6 6 5 
5 6 5 5 5 6 5 6 5 
5 5 5 5 5 5 5 5 5 
2 2 2 2 2 2 2 2 2 
2 2 2 2 2 2 2 2 2 
2 2 2 2 3 3 3 3 3 
3 3 3 3 3 3 3 3 3 
3 3 3 4 4 3 4 4 4 
4 4 4 4 4 4 4 4 4 
5 4 5 5 5 5 5 5 5 
5 5 6 6 5 5 6 6 6 
6 6 6 6 6 6 6 6 6 
6 6 6 6 6 6 6 6 6 
6 6 6 6 6 6 6 7 3 
3 3 3 3 3 3 3 3 3 
3 3 3 3 3 4 8 8 5 
8 8 8 5 5 5 5 5 5 
5 5 5 9 8 9 9 9 9 
9 9 9 9 9 9 9 9 9 
9 9 9 9 10 9 10 9 10 
10 10 10 10 10 10 10 10 10 
10 10 10 10 10 10 10 10 10 
10 10 10 10 10 10 10 11 11 
11 11 11 11 11 11 11 11 11 
11 11 11 11 11 11 11 11 12 
12 12 12 12 12 12 12 12 12 
12 12 12 12 12 12 12 12 11 
12 11 12 11 11 11 11 11 11 
11 11 11 11 11 11 11 11 11 
11 11 11 11 11 11 11 11 11 
11 11 11 10 10 10 11 10 10 
10 10 11 11 10 11 10 11 10 
11 11 11 11 10 11 11 10 11 
10 11 10 10 11 11 10 11 11 
11 11 11 11 11 10 11 11 11 
11 11 11 11 11 11 11 11 11 
11 11 11 11 11 11 11 11 11 
11 11 11 11 11 11 11 11 11 
11 11 11 11 10 10 10 10 11 
10 10 10 10 10 10 10 10 10 
10 10 10 10 10 10 10 10 10 
10 10 10 10 10 10 9 10 9 
9 9 9 9 9 9 9 9 9 
9 9 9 9 9 9 9 9 9 
9 9 9 9 9 9 9 9 9 
9 9 9 9 9 5 6 7 6 
6 7 7 7 6 6 6 6 6 
6 7 6 7 7 7 7 7 7 
7 7 7 7 7 7 7 7 7 
7 7 7 7 7 7 7 7 7 
7 11 11 11 11 11 11 11 11 
11 11 11 10 10 10 10 10 11 
11 11 11 11 11 12 12 11 12 
12 12 12 12 12 12 12 12 12 
12 12 12 12 12 12 12 12 12 
12 12 12 12 12 12 12 12 12 
12 12 12 12 12 12 12 12 12 
12 12 12 12 12 12 11 11 11 
11 11 10 11 11 10 11 12 12 
11 12 12 12 12 11 12 12 4 
4 4 4 4 4 4 4 4 4 
4 4 6 6 6 6 6 6 6 
6 3 3 3 3 3 2 2 3 
3 3 2 2 2 2 2 2 2 
3 3 3 3 3 3 3 3 3 
3 3 3 4 3 4 4 4 4 
4 4 4 4 4 4 4 4 2 
3 3 3 3 3 3 3 4 4 
4 4 4 4 4 4 4 5 5 
5 5 5 5 5 5 5 5 5 
5 5 5 5 5 5 5 5 5 
6 6 6 6 6 6 4 4 4 
4 4 4 5 9 9 9 9 9 
9 9 9 9 9 9 9 9 9 
9 9 9 9 10 10 10 10 10 
10 10 10 10 11 10 11 11 11 
11 11 5 9 9 9 9 9 9 
9 9 10 9 9 10 9 10 10 
10 10 10 10 10 10 6 7 7 
7 7 7 7 7 7 7 7 7 
7 7 7 7 7 7 7 9 9 
9 9 9 9 9 9 9 9 9 
9 9 9 9 9 9 9 10 10 
11 10 10 10 10 10 10 10 10 
9 9 9 9 9 9 9 9 9 
9 9 9 9 9 9 9 11 11 
10 10 10 10 10 10 11 11 11 
11 11 11 11 11 11 11 12 12 
11 11 11 10 10 10 10 10 10 
10 10 10 10 10 10 10 10 10 
12 13 13 12 12 12 12 12 12 
12 12 12 12 12 12 12 12 12 
12 12 12 11 12 12 12 12 12 
12 12 12 11 12 5 5 6 6 
5 5 5 5 6 7 6 6 6 
6 6 6 6 6 6 6 6 6 
6 6 6 6 5 6 5 5 5 
5 5 5 5 5 5 5 5 5 
5 3 3 3 3 3 3 3 3 
3 3 3 3 3 3 3 3 3 
4 4 4 4 4 4 3 6 7 
7 7 3 7 7 7 7 7 7 
7 7 7 7 7 7 6 7 6 
7 7 7 6 6 6 6 6 6 
6 7 6 7 6 6 6 6 6 
6 6 6 6 6 6 6 6 6 
6 6 6 6 6 6 6 6 6 
6 6 6 6 6 6 6 6 6 
6 6 6 6 6 6 6 6 6 
6 6 6 6 6 6 6 6 6 
6 6 5 5 5 6 5 5 5 
5 5 5 2 2 2 2 9 5 
5 5 6 6 6 6 5 5 9 
9 9 9 9 5 5 7 9 8 
8 8 8 8 8 8 8 9 8 
8 9 8 8 8 8 8 8 8 
8 8 8 8 8 9 9 9 9 
10 10 11 10 11 11 10 11 11 
11 11 11 11 11 11 11 11 11 
11 11 10 11 11 10 10 10 11 
11 11 10 12 11 12 12 12 10 
10 10 10 10 10 10 10 10 10 
10 10 10 10 9 9 9 9 9 
9 12 12 11 7 7 7 3 3 
3 3 3 3 3 3 3 3 3 
3 3 4 4 3 3 10 10 10 
10 10 10 11 11 11 11 10 11 
11 11 11 11 4 4 4 5 5 
5 5 5 5 5 5 5 5 6 
6 6 6 6 6 6 6 6 6 
6 6 6 6 6 6 6 6 6 
6 6 10 9 10 10 10 9 5 
5 5 5 5 5 5 5 5 5 
5 5 5 6 5 5 6 6 6 
6 6 6 6 5 5 5 5 5 
5 5 5 5 6 6 6 5 5 
6 6 6 6 6 6 7 6 7 
7 7 7 7 6 6 6 6 6 
9 9 9 9 9 9 9 9 9 
9 9 9 8 8 8 8 8 9 
9 9 10 9 9 9 11 11 11 
11 11 11 11 11 11 11 11 11 
11 11 11 11 11 11 11 11 11 
11 10 10 10 10 9 11 11 11 
10 11 11 11 11 11 11 11 11 
11 11 11 11 11 11 10 10 10 
9 12 10 10 10 10 10 10 10 
10 10 10 9 9 9 9 9 9 
9 9 9 9 9 9 9 9 9 
10 10 10 10 10 10 10 10 10 
10 10 10 10 10 10 10 10 10 
10 10 10 10 10 10 10 10 10 
10 10 10 10 10 10 10 9 9 
9 9 9 9 9 9 9 9 9 
9 12 12 12 12 11 4 5 5 
7 8 8 7 7 7 7 7 7 
7 7 7 7 7 7 7 7 7 
7 7 7 7 7 7 7 7 7 
7 7 7 7 7 7 4 4 4 
4 3 4 5 5 5 5 5 5 
4 5 9 9 9 10 10 10 10 
10 10 10 10 10 10 10 10 10 
10 10 10 10 10 10 10 10 10 
10 10 10 10 10 10 10 10 10 
10 10 10 10 9 10 10 9 9 
10 10 9 9 9 10 10 9 9 
9 9 9 9 9 9 9 9 9 
9 9 9 9 9 9 9 9 9 
10 10 10 10 10 10 10 10 10 
11 11 11 2 3 3 3 3 3 
3 3 3 3 3 3 3 3 4 
4 4 4 4 4 4 4 4 4 
4 4 4 5 4 5 4 4 4 
4 4 4 4 4 4 5 4 4 
4 5 5 4 4 4 4 4 4 
9 5 5 5 5 5 5 5 9 
10 10 10 10 7 6 7 7 7 
8 7 8 8 7 8 8 8 7 
7 7 7 7 7 7 7 7 8 
10 10 10 11 10 11 11 10 11 
11 11 10 9 10 10 10 9 11 
11 11 9 9 9 9 9 9 12 
12 12 12 12 12 12 12 12 12 
12 12 12 12 12 13 12 13 12 
13 12 13 12 13 13 13 13 13 
13 13 13 13 13 13 13 13 13 
13 13 13 13 13 13 13 13 13 
13 13 13 12 12 12 12 12 12 
12 12 12 12 12 13 13 13 13 
13 13 13 13 13 13 13 13 13 
13 13 13 13 13 13 13 13 13 
13 13 12 12 13 12 12 12 12 
13 12 12 12 12 12 12 12 12 
12 13 12 12 13 12 13 13 13 
13 13 13 13 13 13 13 13 13 
13 13 13 10 11 11 11 11 10 
10 10 10 10 12 12 12 6 6 
5 4 4 5 5 4 4 4 4 
4 5 4 4 7 7 7 6 7 
7 7 7 7 7 7 7 7 7 
7 8 8 8 8 8 8 7 8 
8 8 8 8 8 8 8 8 8 
7 8 8 8 8 8 8 8 8 
8 8 8 8 8 8 8 8 8 
8 8 8 8 8 8 8 8 8 
8 8 8 8 8 8 8 8 8 
8 8 8 8 8 8 8 8 8 
8 8 8 8 8 8 8 8 8 
8 8 8 8 8 8 8 8 8 
8 8 8 8 8 8 8 8 8 
8 8 8 8 8 8 8 8 8 
8 8 7 8 7 7 8 7 7 
8 8 7 7 8 7 8 8 8 
7 8 8 7 8 8 8 8 8 
8 7 7 7 7 7 7 7 7 
7 7 7 7 7 7 7 7 6 
6 6 6 6 6 6 6 6 6 
6 6 6 6 6 6 6 6 6 
6 6 6 6 6 6 6 6 5 
5 5 5 3 11 11 11 11 11 
11 10 10 10 10 5 6 6 6 
6 6 6 6 6 7 7 7 7 
7 7 7 7 7 7 7 7 7 
7 6 6 6 6 6 7 7 7 
7 7 8 6 6 7 7 7 6 
7 6 6 7 6 11 11 11 8 
7 7 11 11 11 8 8 8 8 
8 9 8 8 9 8 9 9 9 
9 9 9 9 9 9 9 9 9 
9 9 10 10 10 10 10 10 10 
8 8 8 8 8 8 8 8 8 
9 8 8 8 8 9 9 9 8 
11 11 11 9 9 9 9 9 9 
9 9 9 9 9 9 9 9 12 
12 12 12 12 12 12 12 12 12 
12 12 13 10 10 10 10 10 10 
10 10 10 9 10 12 10 10 10 
10 12 11 11 11 11 11 11 11 
11 11 11 11 11 11 11 11 11 
11 11 10 10 11 11 10 10 11 
11 10 10 11 11 11 11 11 11 
11 11 11 11 11 11 11 11 11 
11 11 11 11 11 10 10 10 10 
11 10 10 6 6 5 5 5 5 
5 5 5 5 5 5 5 5 5 
5 5 5 5 5 5 5 5 5 
5 7 7 7 6 6 6 6 6 
6 6 6 6 6 6 6 5 5 
5 5 5 5 5 5 5 6 6 
6 6 6 6 6 5 5 5 5 
5 4 4 4 4 4 8 8 8 
8 8 8 8 11 11 11 11 4 
4 4 4 4 4 4 4 5 4 
4 5 5 5 5 5 5 5 5 
5 5 5 5 5 5 6 5 6 
6 6 6 6 6 5 5 10 10 
10 10 10 10 11 11 8 7 12 
12 12 8 8 9 12 9 9 9 
9 9 9 9 9 10 10 11 11 
11 11 11 11 11 11 11 11 12 
12 12 12 10 10 10 10 10 10 
11 11 10 6 6 6 6 5 6 
6 5 5 5 4 7 7 8 8 
8 8 8 8 8 8 8 8 8 
8 11 11 11 11 11 11 11 11 
11 12 12 4 4 5 5 5 5 
5 5 6 6 6 6 6 6 5 
10 10 10 11 10 10 11 10 11 
11 11 11 11 11 11 11 11 7 
8 12 8 12 12 12 12 13 13 
13 13 13 13 13 13 13 13 13 
13 13 13 13 13 13 14 13 14 
13 14 13 14 14 14 14 13 13 
13 13 13 13 13 13 13 14 14 
13 14 14 13 13 14 13 13 13 
13 13 13 13 13 13 13 13 13 
13 13 9 13 13 13 13 13 13 
13 12 13 12 12 13 12 13 11 
11 11 11 11 11 11 11 11 11 
11 11 11 11 11 11 11 11 11 
11 11 11 11 11 11 11 11 11 
11 11 11 11 11 11 6 7 7 
7 8 8 8 8 8 8 8 8 
8 8 8 8 8 8 8 8 8 
8 11 11 12 11 11 11 5 5 
5 5 5 5 5 5 5 6 5 
5 5 5 6 6 6 6 6 6 
6 6 4 11 12 4 5 5 5 
5 5 5 5 5 5 5 5 5 
5 5 5 5 5 5 5 5 5 
11 11 11 5 11 11 11 11 11 
11 11 11 11 11 11 11 12 12 
12 12 12 12 12 12 12 12 12 
12 12 12 12 12 12 12 12 12 
12 12 12 13 12 13 13 13 11 
11 11 11 11 11 12 12 12 12 
12 12 12 12 12 12 8 8 8 
13 13 13 13 13 13 13 10 10 
10 9 10 10 10 9 9 9 9 
9 9 10 12 12 11 11 11 11 
9 8 9 9 9 9 9 9 9 
9 9 9 9 9 9 9 9 9 
9 9 9 9 9 9 9 9 8 
8 8 9 4 10 11 11 11 11 
11 11 11 11 5 5 5 5 5 
5 5 5 6 6 12 4 4 4 
4 11 5 5 5 5 5 5 5 
6 5 6 5 6 6 6 6 6 
6 6 6 6 6 6 6 6 6 
6 7 7 7 7 7 7 7 7 
7 7 7 7 7 7 7 7 7 
7 7 7 7 8 8 8 8 8 
8 8 8 8 8 7 7 8 7 
7 7 7 7 7 7 7 7 7 
8 11 11 11 11 11 11 11 11 
6 6 6 6 6 6 11 11 11 
11 11 12 12 12 12 12 12 12 
12 12 12 12 12 12 12 12 12 
12 12 12 12 12 12 13 13 13 
13 13 13 13 13 13 13 13 13 
13 13 13 13 13 13 13 13 13 
13 13 13 13 14 14 13 14 13 
14 14 14 14 14 14 14 14 14 
14 14 14 14 14 14 14 7 7 
12 12 12 12 12 12 12 12 12 
12 12 12 12 12 12 12 12 12 
12 12 12 12 13 13 13 12 13 
13 8 8 8 8 8 8 8 13 
13 13 13 13 13 13 12 12 11 
11 11 11 6 6 6 6 6 6 
6 6 6 6 6 6 6 6 6 
6 6 6 6 6 6 6 5 6 
6 6 6 6 6 6 6 6 6 
5 6 5 5 5 6 6 5 5 
5 5 7 7 7 7 5 5 5 
5 5 5 9 9 8 7 7 6 
6 6 6 6 6 6 6 6 6 
6 6 6 6 6 6 6 6 6 
6 6 6 4 12 12 12 12 12 
12 12 12 12 12 12 12 12 12 
12 12 12 12 12 12 12 12 12 
12 12 12 12 12 12 12 12 12 
12 12 12 12 12 12 12 11 12 
11 11 11 11 11 11 11 11 11 
11 11 11 11 11 11 11 11 11 
11 11 11 11 12 12 12 12 12 
12 11 12 12 12 12 12 12 12 
12 12 12 12 12 12 12 12 12 
12 12 12 12 12 12 12 12 12 
12 12 12 12 12 12 12 12 12 
12 12 12 12 12 12 12 12 11 
12 12 12 11 11 11 12 11 11 
11 11 11 11 11 11 11 11 11 
11 11 11 11 11 11 11 11 11 
11 11 11 11 11 10 11 11 11 
11 11 12 5 5 6 6 11 6 
6 7 7 12 12 12 12 12 12 
12 12 12 12 12 12 12 12 13 
13 12 13 13 13 13 13 13 13 
13 13 12 12 12 12 12 12 12 
8 9 9 9 9 9 9 10 10 
10 10 10 10 10 10 10 10 10 
13 13 13 13 9 9 9 13 9 
9 9 12 10 9 10 10 6 6 
6 6 6 6 6 5 5 5 5 
5 8 8 8 8 8 8 8 8 
8 8 8 8 8 8 8 8 8 
8 8 8 8 8 8 8 8 8 
8 8 8 8 8 8 8 8 8 
8 8 9 8 9 8 8 8 8 
8 9 8 9 9 8 8 9 9 
9 9 9 9 9 9 9 9 9 
9 9 9 9 9 9 9 9 9 
9 9 9 9 9 9 9 9 9 
9 9 9 9 9 9 9 9 9 
9 9 9 9 9 9 9 9 9 
9 9 9 9 9 9 9 9 9 
8 9 9 9 8 9 9 8 9 
8 8 8 8 9 9 8 8 8 
8 8 8 8 8 8 8 7 9 
5 10 5 5 10 10 10 10 10 
10 5 5 5 5 5 12 12 12 
12 12 12 12 12 12 12 12 12 
12 12 12 12 12 5 12 12 12 
12 5 5 5 5 6 6 6 6 
6 6 7 7 7 7 7 7 7 
7 7 7 7 7 7 7 7 7 
11 11 11 11 12 11 11 11 11 
11 7 7 7 7 7 12 12 12 
12 12 12 12 12 12 12 12 13 
10 10 10 10 10 10 10 10 10 
10 10 10 10 10 10 10 10 10 
13 13 13 13 13 13 13 13 13 
13 13 13 13 13 13 12 12 12 
12 12 12 12 12 12 12 12 12 
12 12 12 12 12 12 12 12 12 
12 12 12 12 12 13 13 13 13 
13 10 10 10 11 11 11 11 11 
12 12 12 11 11 11 11 11 11 
11 11 11 10 10 10 10 10 10 
10 10 10 10 10 10 10 10 6 
6 6 6 6 6 6 6 7 6 
7 6 7 7 6 6 6 6 7 
6 7 6 6 7 7 6 6 7 
6 7 7 6 7 6 6 6 5 
5 5 5 9 9 9 9 9 8 
9 9 9 9 8 8 9 8 8 
9 9 9 9 9 9 9 9 9 
9 9 9 9 9 9 9 9 9 
9 9 9 9 9 10 9 9 9 
9 9 9 10 10 10 10 7 7 
7 7 7 7 7 7 7 7 7 
7 7 7 7 7 7 7 7 7 
7 7 7 7 7 7 7 7 7 
7 7 7 7 7 7 7 7 7 
7 7 7 7 7 7 7 7 7 
7 7 7 7 7 7 7 7 7 
7 7 7 7 7 7 7 7 7 
7 7 7 7 7 7 7 7 7 
7 7 7 7 7 7 7 7 7 
7 7 7 7 7 7 7 7 7 
7 7 9 9 9 9 9 9 9 
9 9 9 9 9 10 10 10 9 
9 9 9 9 9 9 9 9 9 
9 9 9 9 9 9 9 9 9 
9 9 9 9 9 9 9 9 9 
9 9 9 9 9 9 10 9 9 
5 10 10 10 10 10 10 10 6 
6 6 6 6 6 6 10 11 10 
10 12 12 12 12 12 12 12 5 
5 5 5 5 5 6 6 6 6 
6 6 6 6 6 6 6 6 6 
6 6 7 7 6 7 7 7 7 
7 7 7 7 7 7 7 7 7 
7 7 8 8 7 8 8 8 8 
8 8 8 8 8 8 8 8 8 
8 8 12 12 12 12 5 5 5 
5 5 12 6 6 6 6 6 6 
6 6 6 6 6 6 7 7 7 
7 7 7 7 7 7 7 12 12 
12 12 12 11 7 7 7 7 7 
7 7 7 7 6 6 7 6 7 
7 7 7 7 12 13 13 13 13 
13 13 13 13 13 13 13 13 14 
13 13 13 14 14 14 14 14 7 
7 7 7 13 14 14 13 13 13 
13 13 13 13 13 13 13 13 13 
13 11 11 11 11 11 10 10 10 
7 7 6 7 6 7 7 7 7 
7 7 7 7 7 7 7 7 7 
8 8 8 8 8 8 7 8 8 
7 7 8 8 8 8 8 8 7 
7 7 7 7 7 7 7 7 7 
7 7 7 7 7 7 8 7 8 
8 8 8 8 8 8 8 8 8 
8 8 8 8 8 5 9 9 9 
9 9 9 9 9 9 7 10 10 
10 10 10 10 11 11 6 5 6 
6 5 5 5 12 12 12 6 6 
6 6 6 6 6 6 6 12 6 
7 7 12 12 13 13 13 13 13 
13 13 13 13 13 13 13 13 13 
13 13 13 12 12 12 11 11 11 
11 11 12 12 11 12 12 12 11 
12 12 12 11 6 7 6 9 9 
9 9 6 6 6 6 6 6 6 
6 6 11 11 6 6 6 6 5 
6 6 6 6 6 6 6 6 6 
7 6 6 7 7 7 7 7 6 
7 7 7 7 7 7 7 7 7 
7 5 5 5 6 6 5 6 6 
6 6 6 6 6 6 6 6 6 
6 6 6 6 6 11 12 12 11 
12 11 11 11 11 11 11 11 11 
11 5 12 12 12 13 12 12 6 
12 6 12 12 12 7 7 13 13 
13 13 14 13 13 13 14 14 14 
14 14 14 14 14 13 13 13 13 
13 12 10 10 10 10 10 10 10 
10 10 10 10 10 10 10 11 11 
11 11 11 11 11 11 11 11 11 
11 11 11 11 11 11 11 11 12 
12 12 12 12 12 12 11 11 6 
6 7 7 7 7 7 9 9 10 
10 9 9 9 10 6 6 6 6 
6 6 10 10 10 10 10 10 10 
10 10 10 10 10 10 10 10 10 
10 10 10 10 10 10 10 6 6 
12 12 12 12 12 12 12 12 12 
12 13 12 12 12 13 12 12 12 
12 12 13 13 6 6 6 6 12 
13 13 12 7 8 8 8 8 8 
8 8 8 8 8 8 8 8 8 
8 8 8 8 8 8 8 13 13 
13 8 8 8 8 8 8 8 8 
8 8 8 8 8 8 8 8 8 
8 8 8 8 8 8 13 13 13 
14 14 13 14 14 8 11 9 9 
9 9 9 9 8 8 8 8 8 
8 7 7 7 7 6 6 6 6 
10 10 10 10 10 10 10 10 10 
10 8 8 8 11 11 11 11 11 
11 6 6 6 7 7 7 7 7 