# vtk DataFile Version 4.2
vtk output
ASCII
DATASET POLYDATA
POINTS 10000 float
-19.6186 -29.7599 103.141 -28.6679 15.4608 108.153 -5.36012 15.0462 81.2622 
-35.1667 -21.4398 87.1149 -39.5137 -13.3066 86.4973 -3.00539 -17.067 74.1144 
-37.447 -26.5768 76.8733 -17.2595 9.92795 65.2532 -11.164 -31.3682 93.4484 
-47.7049 -18.5014 72.6045 2.0615 -9.90478 90.104 -49.1701 -16.9048 73.7643 
-37.3859 -28.6307 73.4883 0.477759 -12.6571 97.8245 -28.6951 5.71607 106.328 
-29.1454 4.54467 115.105 -31.12 -16.1257 55.0185 -9.48237 5.75461 111.256 
-34.6834 -35.3204 66.375 -34.2292 -29.5464 73.7807 -27.8539 -20.716 56.1777 
-48.8871 -25.8905 54.5721 -32.6021 -9.78798 93.1134 1.76432 -7.33855 92.9017 
-17.2247 3.56171 116.17 -47.3252 -15.4985 77.7929 -35.1766 -33.7698 64.8185 
-8.26582 -8.15907 68.9212 -11.5673 -27.7419 104.578 -16.6212 -28.4747 103.035 
-2.44188 14.2798 85.9679 1.10121 -5.81063 100.487 -5.13764 -16.1379 71.3948 
-11.3439 11.0088 109.733 -28.1317 14.5336 105.387 -25.1075 19.7762 107.638 
-16.4681 -14.6794 60.2218 1.61414 -13.0407 89.4628 -31.1089 5.25608 115.644 
-37.324 -25.4333 81.3524 1.60861 -10.0754 94.2522 -11.1743 -23.9589 69.8479 
-33.2359 -12.4614 54.3278 -38.875 -7.05744 88.0251 -44.8403 -27.0133 67.1609 
-2.39333 13.4513 84.4147 -34.1445 7.96271 118.519 -28.085 -16.8029 56.0013 
-18.3314 17.1968 79.121 -35.7169 -30.8053 71.0716 -12.5191 -15.1883 62.506 
-31.953 -6.43706 56.1002 -38.0443 -1.35525 88.1856 -29.0131 -30.1129 79.0938 
-24.6024 -31.7063 85.4665 -19.8752 7.38226 62.3815 -31.0173 9.46912 108.231 
-12.488 -32.3556 86.5868 -28.1229 -2.74093 57.009 -41.2626 -20.0109 55.2094 
-7.22963 -19.7609 69.8075 -19.3213 -33.937 86.5734 0.386962 6.63816 85.6517 
1.38916 -6.47996 77.5053 -30.1591 -25.1762 88.8728 2.09478 -8.55209 79.082 
-7.96953 -14.4442 112.315 -21.7505 20.4026 106.105 -32.7589 -20.825 89.5466 
-27.4506 -30.5682 83.4675 -40.0314 -28.0504 56.7372 -27.1231 -10.5032 99.5802 
-27.4611 -35.0026 76.283 -22.4346 9.23071 116.252 -31.1454 -17.6877 93.491 
-9.43815 18.9171 88.2428 -16.8783 -33.9036 84.9886 -36.091 -12.8513 53.6005 
-24.4375 1.3225 59.4689 -8.33105 -5.79037 112.564 -11.1042 19.6658 92.1945 
-1.85488 -2.10871 104.803 -14.451 -11.033 61.9052 -41.0471 -14.845 54.5528 
-26.6101 -32.0291 81.3904 -1.79325 -22.9379 89.0509 0.464644 5.21176 84.7266 
-0.818793 5.12193 79.1947 -2.42473 -15.8232 73.647 -48.5138 -30.1212 58.4137 
-26.4849 -17.6436 56.9541 -27.3497 -14.8203 98.3721 -15.9974 -30.5563 97.1244 
-14.1659 10.4015 66.4019 -6.10731 -29.028 83.7962 -23.0691 12.5652 114.862 
-24.5194 4.38325 118.133 -29.6267 -22.166 93.8909 0.0445893 8.85693 96.3483 
-20.3075 2.03751 61.0837 -16.4191 -33.2371 86.649 -7.19614 -17.2183 68.2765 
-5.63323 -15.7512 108.139 -40.824 -25.2521 74.8619 1.6473 -11.439 92.8609 
-14.1313 -34.3429 90.0728 -31.4757 6.08368 113.856 -32.2126 -32.5748 73.5924 
-7.78879 -16.4385 111.981 -28.0442 -32.132 77.5279 -2.36366 -20.7208 81.3032 
-10.3994 -29.8486 99.3988 -28.7281 16.1831 113.218 -26.7815 1.08647 105.996 
-42.6978 -26.2767 58.0052 -26.7714 2.15963 108.312 -5.30644 17.4179 86.9228 
-34.3872 -7.68222 92.3933 -17.9083 -30.2004 98.2358 -44.5724 -27.9192 65.8534 
-51.3603 -21.1743 58.6122 -50.6253 -11.2077 74.7829 -6.71609 -2.70649 68.7013 
-14.1391 20.0543 100.988 -36.0373 -2.93614 91.913 -16.1973 2.77878 116.023 
-8.06396 -27.9236 105.141 -40.5709 -18.7788 54.1385 -31.417 -17.3559 54.3271 
-25.4214 -21.1122 102.775 -40.6663 -15.527 85.2624 -19.1911 -6.67207 113.514 
-2.59374 12.2112 99.4177 -15.4462 10.3272 112.433 -18.9521 -9.87592 111.629 
-29.3866 15.3789 113.935 -13.6164 3.72424 64.2972 -33.9851 -27.7179 79.3948 
-6.17419 -15.4691 108.845 1.69329 -10.7981 80.3987 2.6929 0.438709 93.8312 
-35.4185 -28.1438 56.7053 -18.446 -8.05225 114.613 -2.36241 9.54059 78.7603 
-2.20638 -24.1188 93.4724 -9.97752 -29.067 76.3315 -30.1992 2.59797 98.639 
-10.0742 1.02585 65.9897 -3.30238 -12.6387 72.0536 -2.40377 10.7921 80.249 
-28.654 -33.6954 76.1394 0.341283 -17.3779 86.3607 -26.2312 6.92554 119.041 
-39.4422 -29.5819 57.3821 -9.2086 3.51295 67.3224 -2.82614 3.08805 105.973 
-26.4516 2.21371 111.311 1.5651 -0.494782 84.4891 -46.5482 -21.1427 71.6518 
-27.2945 1.32745 105.038 -29.2267 -10.3501 97.0688 -21.6674 -7.43208 107.567 
-20.344 -30.1932 100.257 0.293388 9.27816 94.7379 -37.0489 -9.55195 55.7305 
-9.50884 -27.2662 75.3673 -20.0838 15.8986 90.2741 -44.7085 -24.18 55.71 
-31.0861 -10.1155 94.6596 -2.53504 -1.75157 106.075 -14.8244 16.4411 82.4826 
-38.0932 -35.0947 66.5165 -47.7557 -15.2197 76.9851 -38.9032 -31.8338 67.6718 
-1.38361 -21.4387 97.8615 -4.26381 15.4973 84.1919 1.5683 -12.1025 85.5657 
-18.2021 5.48244 116.089 -3.73529 -25.203 94.9638 -28.0868 -18.626 55.5565 
-4.57768 16.0674 96.5872 -28.7771 -9.63103 97.6091 -0.408479 -16.3648 99.5355 
-10.5865 2.32738 112.908 -27.3415 17.52 106.848 -7.55458 6.62876 69.6405 
-2.4364 5.16051 103.834 -51.691 -20.2954 65.0174 -12.6452 -23.888 68.6859 
-14.1963 0.753153 63.7212 -4.728 -5.49459 70.9258 -31.0872 -13.3092 54.9466 
-13.5128 7.26314 112.976 -34.7895 -32.4262 63.6963 -32.08 11.942 111.647 
-28.9758 -8.66147 97.4511 -22.6382 13.3271 97.919 -47.8966 -30.0004 60.9265 
-7.63782 11.2869 106.571 -48.575 -19.9304 68.1387 0.392426 -15.4054 96.0144 
-13.4428 18.4072 103.464 -31.6778 -32.3141 67.3838 -33.1789 -22.4486 88.3404 
-2.45467 15.0493 92.7461 -31.4156 12.3657 111.171 -35.952 -13.6743 89.4327 
-7.91158 -20.8214 69.7366 -22.7122 -29.0444 103.267 -7.02813 -27.3437 104.892 
-3.38512 0.684173 73.4922 -5.45478 16.9889 95.406 -0.126904 4.56067 101.159 
1.75793 4.06839 91.2781 -12.4828 -32.4351 85.8313 -25.3037 12.7048 92.9797 
-26.2218 -21.4911 101.119 -13.7311 -35.0637 91.554 -12.3878 0.092398 114.976 
-50.7557 -11.7533 66.6413 -16.8373 -34.0702 81.2857 -32.9559 3.22617 95.0244 
-29.7892 -30.9103 76.9555 1.29946 -11.8581 96.6026 -1.09602 1.02212 103.132 
-44.2675 -11.398 60.8124 -45.5052 -31.6491 60.8375 -28.9169 -19.9221 54.7986 
-23.8062 -22.4475 59.6166 -42.9775 -29.0001 66.1306 -17.5656 10.4374 113.485 
-51.7782 -13.3897 68.0986 -7.99633 -0.905146 67.5712 -21.5502 2.98254 60.6298 
-30.7291 -31.9699 67.9749 -23.972 20.3946 105.575 -28.3382 5.23988 100.175 
-47.4679 -8.93687 79.3303 -17.8284 -34.0023 85.1148 -4.88477 -2.09569 70.5591 
-32.7378 10.7126 112.277 -42.013 -18.367 83.0163 -42.4923 -21.7569 55.9494 
-31.1227 5.80019 95.8045 -0.316003 5.50794 100.705 -17.3867 -5.79731 116.8 
-3.68461 -21.9601 102.407 0.54177 9.83312 89.7778 -29.9404 3.87597 98.1139 
0.83012 8.11792 87.5345 -49.5178 -26.8764 61.5811 0.512641 -13.1475 76.9957 
-45.0818 -14.9451 58.5375 -2.32366 -24.0963 89.4236 -0.0108719 -17.4205 84.4536 
-43.8962 -30.5902 63.5457 -40.8736 -13.005 84.9773 -28.8597 11.2656 117.22 
-1.24305 -20.5432 98.7606 -40.5143 -24.0895 82.5332 -1.97537 9.13855 79.3928 
-20.0681 15.974 111.041 -11.7713 6.34532 112.375 -26.5003 13.4154 103.414 
-31.2815 12.6081 116.396 -6.07442 12.5433 103.509 -18.9403 -4.86851 60.7374 
-20.2604 -0.639468 117.064 -28.8834 4.97385 98.4521 1.58937 -14.8774 90.9861 
-48.5181 -24.3559 65.0204 -29.6149 -33.5435 75.4121 -26.8162 6.38597 119.591 
-35.144 5.00641 90.954 -24.5843 -2.37488 58.4032 -38.4602 -14.7811 53.5828 
-21.6066 -30.5623 91.1219 -32.6259 10.8742 118.051 -38.9545 -10.0266 87.0719 
-50.1454 -14.1969 62.8906 -10.0019 -21.8368 68.5331 -2.08168 -18.8936 79.5226 
-42.8938 -25.9277 71.5776 -19.6212 16.1032 89.1683 -8.96811 -28.7016 102.194 
-17.1375 17.9325 96.2118 -16.2433 5.04307 115.604 -21.092 7.62059 116.129 
-41.0506 -24.9502 75.4033 -40.0894 -25.1123 76.5546 -8.2782 1.08226 67.5407 
-20.9774 -31.3797 90.8363 -51.3186 -11.3296 70.7052 -29.8623 -31.2487 65.4148 
-9.86837 8.50984 68.0921 -20.9626 -5.91914 109.773 -30.5303 -22.5248 56.1434 
-46.5766 -20.011 76.2714 -1.00933 12.4674 93.9552 -17.1133 -8.63326 116.87 
-13.9162 11.0067 67.0561 -16.5079 0.983978 62.3879 -29.2445 -30.5464 77.6746 
-49.7188 -18.6978 67.8871 -39.0844 -22.754 84.5164 -26.9098 7.75089 100.129 
0.437619 -10.1837 100.06 -15.9658 15.0229 73.8163 2.93894 -0.545413 93.7555 
-2.45618 1.37409 75.5897 1.52878 -7.9891 79.7755 -32.9114 7.34622 114.103 
-8.25054 -1.76193 111.948 -15.778 18.6905 105.295 -18.5826 17.396 98.4478 
-46.9964 -26.1209 55.0833 -17.8503 11.6197 112.993 1.58351 -14.9162 89.1502 
-31.7672 -15.6763 92.7631 -5.42217 -6.44716 70.1549 -10.3001 5.72271 67.0343 
-2.33319 -13.2983 104.342 -10.9993 13.5722 71.9836 -11.5052 6.32746 66.2479 
-8.14317 4.5093 68.4848 -26.1798 8.8357 99.0577 -44.9608 -26.6161 67.8873 
0.247622 -18.0438 94.4621 -18.5417 -32.3249 91.8086 0.0697868 9.27542 85.6847 
-48.1988 -19.4381 68.9409 -50.1176 -28.819 59.7195 -16.6047 14.3219 70.3361 
-32.3415 -12.0635 93.1407 -24.288 -31.1495 87.2099 -17.9059 -30.2521 95.8275 
-5.69034 3.71085 108.668 -34.8193 -12.4472 90.8002 -10.7098 -28.538 103.372 
1.46184 2.9863 97.9061 -18.2589 -7.5375 59.7471 -18.8475 16.3938 96.5755 
-25.1627 -30.5876 86.6771 1.61714 4.49865 94.8256 1.61414 -13.9391 90.3612 
-46.6485 -15.0271 61.0582 -4.22318 -12.1077 70.9517 -44.013 -22.4787 55.0437 
-28.7455 4.80515 110.514 -23.0949 19.7258 108.2 -6.63963 -6.48099 69.126 
-6.52216 -16.8427 109.733 -33.568 -24.5636 55.0804 -7.46358 15.0745 103.445 
-20.6704 -29.1899 94.752 -20.0096 18.0334 109.35 -33.5703 -32.6625 64.7529 
-36.4423 -30.1174 58.1355 -43.22 -22.4889 78.19 -44.0427 -32.0589 62.6489 
-12.1037 -29.2473 101.383 -10.7176 -28.6296 102.632 -22.3188 5.71086 117.159 
-51.7721 -16.4778 66.9626 -23.0025 -6.07535 106.247 -36.0393 -25.8593 82.5662 
-4.00429 -13.9263 70.9273 2.53281 -4.23936 96.8693 -23.0523 -0.613059 113.105 
-28.3895 8.24325 104.84 -46.328 -19.3566 79.5011 -21.9936 -22.9594 61.5682 
-29.796 -33.9503 69.91 -26.0011 -1.59458 104.498 0.165288 -12.9528 76.0344 
-4.98292 15.9498 98.1948 -36.0562 -24.8384 84.6311 -26.6048 -21.11 100.524 
-8.40552 19.0768 89.4303 -30.8465 -14.2788 55.3434 -27.6738 3.407 110.984 
-8.91871 -27.5651 106.61 -29.9805 -19.4227 94.7843 -51.6056 -13.9848 66.0268 
[...]
POINT_DATA 10000
FIELD FieldData 1
circles 1 10000 double
-10 -10 0 18 39 20 -10 -10 29 
-10 30 46 -10 -10 34 -10 -10 22 
-10 7 21 16 -10 -10 -10 46 -10 
4 37 -10 -10 10 -10 22 -10 9 
14 30 -10 17 -10 49 41 39 35 
0 -10 21 -10 7 -10 -10 -10 -10 
36 -10 34 29 -10 5 49 -10 31 
8 18 -10 24 9 18 36 -10 33 
-10 -10 -10 -10 -10 41 -10 -10 -10 
40 -10 -10 36 45 31 -10 20 16 
21 33 -10 -10 -10 -10 23 18 44 
19 -10 -10 24 35 -10 29 -10 7 
24 -10 45 37 -10 34 -10 34 32 
39 -10 -10 16 46 -10 25 26 -10 
37 5 -10 -10 -10 -10 -10 22 -10 
-10 19 -10 24 -10 -10 28 -10 0 
12 47 26 -10 20 0 7 -10 43 
-10 6 -10 -10 -10 35 34 33 27 
11 -10 41 -10 -10 5 -10 40 1 
38 46 38 12 -10 30 23 -10 21 
32 33 12 -10 -10 6 44 48 49 
19 -10 41 22 -10 -10 33 15 -10 
42 -10 12 -10 -10 18 32 -10 39 
49 11 37 6 32 44 31 -10 15 
-10 29 -10 48 -10 26 7 -10 -10 
-10 38 21 21 38 22 48 6 -10 
-10 9 -10 -10 -10 6 -10 -10 5 
-10 44 13 -10 -10 26 31 16 20 
-10 45 -10 38 39 43 12 17 0 
9 22 -10 43 42 -10 23 -10 30 
-10 7 -10 -10 2 41 -10 43 39 
48 49 -10 35 1 37 25 -10 23 
35 -10 6 -10 -10 -10 -10 27 21 
-10 -10 13 3 19 -10 48 17 -10 
10 3 -10 8 -10 -10 40 -10 25 
-10 -10 30 -10 -10 -10 24 3 -10 
6 15 35 12 -10 -10 -10 16 3 
-10 36 -10 -10 39 37 44 -10 25 
36 -10 30 -10 20 5 34 9 -10 
24 28 42 11 9 -10 28 -10 38 
37 37 23 48 27 17 20 10 -10 
34 46 -10 7 27 20 -10 17 -10 
32 -10 -10 37 -10 48 22 -10 -10 
48 -10 -10 17 31 -10 16 -10 -10 
-10 48 -10 -10 3 9 -10 13 20 
34 -10 12 22 46 -10 -10 -10 21 
15 9 7 10 18 45 -10 21 1 
30 32 -10 -10 41 28 42 17 48 
26 41 1 36 -10 -10 -10 11 22 
-10 11 26 26 44 -10 31 -10 40 
19 8 43 -10 -10 -10 26 19 34 
12 -10 14 -10 -10 32 -10 -10 28 
44 21 -10 41 -10 41 -10 39 43 
-10 10 -10 5 -10 1 -10 33 -10 
-10 -10 36 32 28 -10 21 1 -10 
18 -10 -10 25 12 19 12 -10 24 
20 -10 -10 34 2 -10 -10 22 -10 
43 13 20 -10 3 46 -10 24 37 
36 -10 -10 35 -10 -10 -10 28 43 
-10 -10 34 10 -10 8 -10 32 5 
47 21 40 -10 9 48 -10 25 -10 
48 -10 -10 27 36 16 22 25 22 
4 14 31 29 -10 -10 -10 37 9 
44 -10 48 39 -10 13 23 34 -10 
-10 -10 24 32 13 -10 -10 26 11 
15 -10 -10 1 -10 17 -10 9 35 
-10 27 4 13 8 17 -10 -10 -10 
24 -10 -10 -10 -10 -10 -10 26 -10 
35 -10 -10 -10 26 37 37 -10 5 
39 41 49 42 13 -10 48 4 -10 
15 -10 16 34 -10 10 5 1 47 
-10 45 38 6 -10 -10 38 41 -10 
-10 18 -10 31 31 5 15 3 9 
21 -10 38 32 48 24 26 -10 32 
7 -10 -10 -10 5 -10 22 44 38 
-10 -10 17 -10 -10 7 -10 14 -10 
-10 16 40 43 40 -10 25 -10 36 
6 13 43 31 34 1 41 -10 -10 
-10 29 -10 43 43 -10 8 -10 39 
-10 -10 37 48 -10 47 22 -10 -10 
46 -10 39 -10 11 35 30 -10 -10 
-10 -10 16 2 -10 -10 27 10 -10 
49 -10 -10 11 11 19 19 -10 -10 
47 41 -10 44 48 17 -10 -10 26 
26 -10 49 42 12 -10 9 -10 31 
-10 -10 0 47 13 36 40 37 20 
28 34 -10 42 -10 34 49 -10 46 
14 49 1 1 -10 -10 -10 17 23 
15 -10 8 14 33 -10 15 -10 16 
34 -10 38 -10 -10 3 -10 -10 -10 
20 -10 32 7 45 34 38 36 -10 
21 30 23 -10 31 -10 -10 -10 -10 
26 36 -10 -10 22 19 -10 -10 -10 
-10 41 34 43 12 -10 -10 -10 -10 
-10 34 47 -10 -10 42 21 34 15 
37 35 -10 -10 -10 21 41 -10 26 
19 6 -10 3 13 41 42 37 46 
33 2 30 -10 -10 -10 6 -10 38 
-10 24 21 -10 11 -10 -10 45 -10 
1 43 -10 34 2 -10 16 -10 43 
39 16 0 26 29 43 28 -10 20 
-10 -10 11 -10 -10 4 18 14 -10 
-10 -10 32 -10 40 -10 46 47 -10 
-10 38 -10 11 14 47 23 -10 -10 
29 22 6 29 26 17 -10 -10 6 
-10 29 -10 17 -10 7 35 1 43 
11 28 14 37 40 -10 35 36 47 
-10 -10 -10 -10 -10 -10 12 21 24 
17 -10 23 -10 -10 -10 19 46 -10 
-10 8 15 13 -10 -10 -10 28 28 
-10 12 -10 29 24 20 -10 30 46 
8 16 -10 -10 -10 -10 23 -10 7 
-10 23 -10 -10 44 13 1 2 -10 
-10 36 -10 -10 37 31 31 -10 4 
-10 -10 -10 -10 17 -10 6 -10 37 
3 2 37 -10 -10 8 30 36 17 
-10 42 -10 -10 -10 -10 -10 33 -10 
-10 -10 11 9 -10 47 -10 1 -10 
-10 28 32 21 14 40 10 27 37 
12 26 34 16 35 4 43 46 -10 
-10 -10 -10 25 49 -10 -10 -10 35 
-10 -10 -10 13 49 18 12 22 48 
-10 30 -10 27 44 35 12 5 42 
-10 -10 40 -10 -10 31 11 -10 -10 
-10 -10 39 -10 46 -10 16 -10 29 
-10 7 -10 -10 49 -10 7 27 -10 
22 17 35 -10 22 -10 15 -10 -10 
37 -10 -10 2 4 -10 32 42 -10 
6 17 -10 46 -10 5 26 37 -10 
2 -10 5 40 -10 -10 20 -10 -10 
-10 4 23 -10 8 7 17 -10 21 
10 31 47 24 -10 -10 -10 13 38 
19 48 48 24 37 -10 0 7 21 
44 -10 10 46 0 6 -10 46 44 
5 20 -10 48 -10 -10 -10 47 -10 
37 33 10 -10 15 7 -10 5 -10 
47 34 47 43 -10 -10 39 -10 3 
-10 44 13 8 -10 -10 32 -10 -10 
-10 39 44 14 -10 -10 1 -10 -10 
18 -10 22 13 -10 47 -10 37 -10 
2 -10 -10 -10 21 16 37 15 -10 
-10 20 -10 23 39 46 25 -10 34 
23 -10 38 11 32 26 -10 -10 -10 
2 19 4 41 -10 45 12 44 6 
-10 29 -10 24 34 1 23 10 4 
-10 -10 -10 29 -10 4 -10 -10 33 
17 8 32 -10 -10 -10 -10 41 47 
-10 -10 33 -10 33 -10 3 -10 39 
4 17 32 -10 -10 19 9 -10 14 
28 30 -10 -10 12 -10 1 -10 -10 
9 17 -10 5 40 20 10 30 -10 
-10 -10 -10 -10 32 33 13 19 -10 
8 -10 -10 33 38 -10 -10 23 8 
35 -10 -10 24 49 37 7 3 -10 
-10 4 -10 28 -10 34 -10 27 -10 
44 -10 -10 -10 -10 21 -10 10 38 
-10 0 45 49 23 16 43 27 28 
17 -10 28 -10 18 19 -10 17 45 
13 -10 -10 10 44 -10 -10 38 17 
39 7 32 35 27 12 49 25 3 
26 44 20 46 -10 -10 -10 14 13 
0 18 17 -10 12 -10 17 -10 48 
-10 -10 5 -10 -10 13 34 -10 -10 
17 43 4 23 30 5 41 46 -10 
32 8 15 -10 17 -10 45 38 9 
-10 40 2 -10 15 -10 -10 5 -10 
-10 32 -10 32 -10 -10 29 35 20 
14 -10 14 -10 23 -10 5 -10 -10 
-10 -10 14 13 32 -10 24 -10 -10 
49 40 18 -10 17 -10 5 -10 -10 
30 23 -10 18 -10 34 7 42 -10 
9 -10 -10 -10 -10 33 -10 19 29 
28 -10 15 20 31 46 17 -10 20 
13 46 30 15 15 -10 3 33 -10 
23 -10 26 -10 19 38 15 -10 6 
42 15 -10 -10 -10 29 -10 6 22 
-10 -10 -10 32 5 30 -10 11 15 
-10 -10 4 -10 -10 27 21 -10 -10 
-10 -10 9 11 -10 10 -10 -10 23 
34 -10 16 32 -10 36 -10 -10 -10 
34 5 -10 -10 -10 0 -10 41 -10 
-10 -10 4 20 -10 30 -10 36 -10 
23 18 43 20 11 2 -10 11 -10 
8 -10 -10 12 39 -10 -10 43 39 
49 16 46 43 23 -10 -10 41 -10 
42 -10 -10 -10 22 -10 -10 -10 -10 
11 -10 40 42 32 22 25 -10 -10 
24 -10 7 -10 30 40 -10 20 -10 
33 -10 -10 -10 -10 -10 26 -10 -10 
42 27 26 43 23 30 36 19 -10 
-10 43 -10 42 43 -10 28 24 -10 
19 11 -10 28 2 28 15 31 12 
-10 35 -10 -10 -10 49 12 30 -10 
-10 -10 21 -10 11 37 37 -10 42 
0 -10 3 18 -10 10 -10 17 8 
30 3 35 -10 48 -10 28 44 22 
-10 -10 32 -10 21 -10 -10 22 -10 
28 39 -10 18 31 26 36 -10 -10 
39 35 -10 -10 23 48 43 41 -10 
-10 15 -10 6 -10 8 28 12 45 
-10 -10 17 -10 30 5 -10 -10 -10 
38 41 34 49 43 28 -10 38 -10 
42 -10 -10 29 -10 9 -10 -10 -10 
28 -10 32 36 30 26 27 41 7 
-10 29 20 -10 47 14 49 14 -10 
-10 -10 45 18 34 -10 32 22 17 
49 13 33 6 -10 -10 4 -10 22 
44 33 20 -10 47 33 39 44 -10 
-10 5 28 5 -10 -10 43 31 26 
-10 21 30 -10 -10 18 9 2 -10 
30 16 30 6 26 -10 6 -10 30 
-10 -10 15 1 -10 28 -10 9 -10 
-10 6 36 39 -10 5 7 -10 38 
-10 49 -10 -10 -10 26 25 -10 -10 
-10 4 37 0 49 32 -10 30 5 
23 31 29 41 30 -10 -10 -10 -10 
14 -10 2 -10 -10 46 -10 -10 25 
9 0 34 44 24 -10 20 13 3 
17 -10 35 2 44 -10 -10 9 24 
23 5 4 38 31 3 37 -10 39 
11 -10 45 -10 -10 -10 34 -10 0 
-10 10 -10 -10 16 4 25 -10 -10 
-10 -10 -10 12 -10 46 -10 4 21 
40 25 45 22 18 49 31 -10 40 
8 -10 -10 21 -10 -10 -10 -10 13 
19 45 -10 -10 25 -10 36 31 49 
27 38 -10 13 47 38 8 -10 32 
19 36 42 -10 15 42 15 -10 26 
39 -10 -10 12 0 -10 -10 -10 12 
17 25 39 -10 -10 -10 -10 -10 21 
42 -10 5 -10 19 -10 -10 34 20 
10 1 -10 6 -10 -10 39 45 35 
25 20 14 9 6 -10 25 21 -10 
-10 -10 38 -10 48 48 -10 44 16 
-10 -10 5 45 29 43 25 -10 36 
31 42 10 -10 13 1 3 -10 -10 
-10 27 -10 10 36 -10 49 -10 -10 
-10 29 -10 -10 17 19 -10 45 41 
-10 14 1 -10 15 3 16 26 33 
-10 31 25 -10 -10 -10 -10 49 28 
40 -10 23 10 39 -10 -10 -10 46 
16 -10 -10 -10 14 -10 44 19 -10 
-10 -10 36 -10 37 3 31 47 -10 
45 -10 26 0 32 25 -10 24 37 
12 23 48 31 -10 -10 12 -10 -10 
-10 21 -10 -10 16 -10 40 -10 -10 
-10 -10 42 47 -10 21 -10 27 -10 
47 -10 -10 -10 -10 -10 -10 38 18 
25 34 46 20 -10 46 13 14 0 
-10 45 -10 13 10 6 24 21 11 
24 -10 -10 -10 -10 26 3 41 -10 
6 -10 -10 -10 32 6 44 -10 -10 
38 44 34 -10 -10 -10 2 -10 14 
-10 30 34 -10 14 37 -10 7 11 
-10 -10 -10 -10 27 13 -10 -10 -10 
26 46 3 -10 -10 14 39 15 39 
24 -10 -10 -10 31 2 16 -10 3 
37 3 -10 -10 -10 -10 -10 14 29 
-10 17 21 -10 0 17 -10 1 12 
43 38 -10 -10 16 -10 9 47 -10 
3 27 19 -10 4 -10 40 -10 20 
18 12 16 5 -10 46 -10 -10 -10 
41 -10 -10 40 20 -10 46 27 27 
-10 0 25 13 10 38 -10 -10 -10 
46 -10 37 -10 -10 4 -10 -10 -10 
0 -10 42 38 48 -10 6 -10 49 
-10 16 45 9 43 46 45 9 2 
-10 -10 32 35 -10 1 -10 48 4 
30 15 -10 3 47 31 -10 18 26 
18 -10 41 -10 -10 29 -10 22 23 
7 -10 38 25 -10 -10 -10 30 20 
7 46 -10 22 -10 -10 3 35 44 
11 -10 40 -10 1 -10 -10 30 -10 
5 -10 -10 29 20 -10 6 -10 -10 
45 19 -10 24 26 38 20 22 0 
6 19 14 46 33 34 -10 35 17 
46 22 -10 -10 -10 -10 20 -10 1 
46 -10 -10 -10 -10 -10 -10 39 -10 
2 6 33 45 -10 22 21 -10 -10 
-10 42 -10 -10 6 27 21 27 -10 
-10 14 -10 16 15 12 38 -10 3 
8 19 31 -10 -10 43 48 15 -10 
-10 -10 -10 25 27 29 8 25 16 
-10 40 20 25 -10 40 -10 -10 -10 
-10 21 24 18 36 10 29 39 -10 
8 -10 44 6 10 15 14 -10 43 
34 37 -10 -10 -10 31 -10 45 9 
-10 5 -10 23 0 28 -10 -10 -10 
-10 0 0 -10 -10 16 12 19 26 
23 -10 27 -10 14 -10 29 38 41 
-10 -10 -10 -10 9 -10 -10 45 -10 
30 -10 15 -10 -10 35 13 24 19 
33 27 46 -10 24 -10 43 2 7 
44 34 1 -10 17 11 -10 -10 -10 
23 -10 4 -10 19 42 -10 -10 49 
-10 3 -10 -10 -10 41 -10 23 -10 
-10 -10 -10 10 25 39 43 26 8 
18 -10 42 -10 -10 35 32 -10 5 
16 40 -10 22 -10 4 27 -10 40 
27 -10 -10 21 0 46 -10 15 20 
-10 -10 17 -10 -10 -10 40 -10 29 
22 -10 26 -10 -10 27 -10 0 -10 
27 34 -10 35 -10 -10 -10 40 11 
13 -10 33 39 -10 46 -10 37 -10 
5 33 -10 -10 -10 -10 -10 -10 -10 
-10 -10 3 -10 46 21 31 20 -10 
11 -10 29 1 -10 21 -10 -10 7 
11 40 -10 14 -10 -10 -10 -10 24 
8 11 9 11 41 -10 39 -10 4 
-10 -10 4 12 40 -10 10 -10 -10 
-10 11 37 -10 20 2 24 -10 34 
-10 40 28 -10 38 -10 -10 -10 -10 
35 -10 5 20 -10 47 -10 30 -10 
-10 27 -10 10 -10 35 -10 39 -10 
0 -10 48 40 48 -10 25 -10 23 
-10 47 -10 5 -10 23 -10 -10 -10 
-10 40 -10 36 14 -10 -10 26 20 
-10 -10 46 14 20 32 -10 32 -10 
45 29 23 35 -10 -10 -10 -10 33 
-10 9 23 42 -10 49 -10 -10 -10 
29 -10 30 1 45 14 -10 33 1 
14 12 -10 16 -10 -10 23 18 -10 
19 -10 22 1 -10 20 16 15 -10 
-10 49 -10 -10 -10 -10 -10 4 1 
20 31 14 7 37 24 47 -10 -10 
48 12 -10 11 29 -10 37 31 36 
-10 -10 24 12 7 1 -10 17 30 
23 24 26 -10 34 6 25 21 42 
-10 25 -10 19 31 28 38 -10 27 
7 9 -10 30 17 36 -10 19 25 
-10 18 38 23 44 43 -10 1 48 
14 30 43 15 -10 23 -10 13 0 
40 30 26 46 20 -10 31 47 21 
45 -10 -10 18 35 34 -10 -10 49 
36 15 -10 -10 32 1 43 -10 36 
-10 35 19 31 43 -10 -10 8 35 
-10 41 12 30 0 -10 19 4 29 
36 12 -10 -10 -10 -10 -10 47 -10 
-10 15 49 -10 -10 17 -10 33 -10 
-10 -10 24 -10 23 4 49 45 33 
48 47 28 6 -10 -10 17 -10 26 
0 24 7 -10 6 4 32 -10 11 
-10 23 -10 -10 11 43 20 44 -10 
-10 14 -10 44 -10 28 25 -10 -10 
-10 34 -10 9 22 17 -10 21 -10 
-10 32 22 -10 28 -10 14 36 44 
3 32 19 -10 -10 -10 12 -10 31 
-10 -10 -10 26 -10 45 -10 37 -10 
21 20 -10 -10 17 43 -10 -10 31 
19 -10 8 17 -10 -10 28 22 -10 
-10 -10 -10 -10 40 35 -10 -10 -10 
25 -10 41 5 -10 -10 -10 -10 31 
31 38 -10 45 -10 13 24 26 18 
20 29 8 45 -10 6 35 40 -10 
-10 22 28 -10 -10 -10 17 22 -10 
35 4 -10 -10 -10 -10 -10 36 -10 
-10 -10 47 14 3 -10 -10 33 47 
23 3 -10 2 -10 -10 -10 41 -10 
-10 3 -10 7 26 19 2 30 35 
-10 39 48 8 -10 8 6 2 16 
41 -10 -10 -10 34 34 -10 -10 -10 
15 -10 -10 27 12 21 -10 -10 4 
14 23 -10 -10 39 43 -10 38 -10 
11 -10 3 -10 35 -10 -10 36 -10 
19 -10 9 -10 -10 -10 -10 -10 -10 
-10 9 10 29 -10 -10 12 37 12 
-10 -10 -10 42 2 24 0 44 6 
-10 -10 -10 47 40 23 45 41 41 
40 46 32 12 -10 24 10 -10 48 
46 -10 7 20 7 8 -10 2 -10 
-10 28 5 5 6 -10 7 -10 45 
-10 -10 39 47 -10 -10 -10 -10 -10 
47 8 39 -10 19 -10 -10 6 32 
-10 19 25 11 19 4 36 -10 29 
26 2 18 -10 6 25 -10 25 7 
16 -10 37 -10 -10 0 6 -10 9 
41 -10 2 44 39 38 -10 -10 27 
21 -10 -10 -10 25 18 44 13 -10 
12 -10 15 27 -10 -10 6 5 -10 
-10 31 18 41 16 -10 -10 5 -10 
37 25 49 -10 24 -10 -10 19 31 
42 26 1 10 -10 23 26 45 -10 
7 37 -10 -10 35 34 18 19 -10 
47 29 -10 43 48 -10 21 -10 -10 
40 38 -10 -10 -10 28 28 -10 -10 
11 -10 8 30 -10 0 -10 2 -10 
-10 -10 -10 -10 -10 -10 44 21 -10 
23 -10 -10 48 -10 -10 33 46 15 
31 -10 29 -10 11 -10 -10 7 8 
8 -10 -10 -10 -10 41 49 23 -10 
-10 28 36 11 24 23 22 -10 -10 
32 -10 16 5 -10 47 27 41 -10 
18 13 10 -10 -10 -10 -10 -10 41 
-10 -10 -10 -10 -10 27 31 -10 1 
-10 31 -10 36 34 34 26 7 -10 
-10 48 -10 21 -10 -10 -10 1 -10 
-10 46 38 33 -10 -10 40 13 -10 
-10 48 15 -10 -10 -10 -10 -10 23 
6 36 9 4 15 -10 -10 41 9 
17 3 47 15 -10 17 11 -10 47 
33 4 11 45 40 39 10 13 1 
16 3 -10 -10 24 -10 -10 19 11 
-10 27 2 4 34 47 4 -10 -10 
5 39 28 -10 13 25 7 28 -10 
-10 24 -10 -10 19 17 -10 -10 35 
2 28 -10 33 -10 40 5 41 16 
41 8 9 -10 28 -10 19 37 -10 
36 -10 15 37 19 -10 -10 -10 10 
46 -10 -10 -10 20 -10 3 -10 45 
-10 -10 -10 12 0 9 -10 47 34 
23 23 -10 20 49 -10 -10 44 32 
48 -10 43 44 -10 16 46 -10 -10 
49 10 -10 22 -10 40 -10 -10 20 
2 -10 34 10 19 47 31 -10 19 
-10 0 -10 37 -10 -10 -10 11 19 
-10 45 -10 34 19 -10 8 -10 -10 
-10 -10 -10 -10 -10 -10 -10 37 13 
43 42 43 40 -10 19 -10 26 48 
36 -10 14 25 36 -10 -10 -10 43 
-10 -10 35 33 2 -10 18 -10 -10 
-10 37 34 -10 19 -10 18 1 -10 
-10 47 11 -10 1 -10 -10 -10 14 
36 48 32 36 20 -10 22 40 26 
4 -10 39 44 -10 39 -10 -10 -10 
-10 22 18 -10 -10 24 3 41 1 
-10 -10 -10 47 -10 -10 39 34 44 
27 -10 47 3 48 -10 27 -10 -10 
16 -10 -10 24 -10 26 2 40 49 
1 -10 16 -10 10 9 47 -10 25 
42 11 20 -10 18 20 20 49 9 
-10 23 -10 24 -10 -10 37 0 27 
-10 5 13 46 -10 -10 48 48 30 
29 5 -10 16 27 10 3 -10 29 
-10 -10 -10 16 -10 -10 31 28 -10 
7 -10 8 16 44 47 20 -10 21 
-10 -10 31 46 23 -10 -10 47 31 
-10 -10 30 13 10 9 0 -10 -10 
-10 -10 -10 -10 2 -10 19 10 0 
45 -10 -10 39 21 -10 20 -10 -10 
-10 41 -10 35 41 -10 -10 -10 20 
16 -10 -10 -10 -10 18 -10 25 -10 
44 -10 19 -10 -10 5 20 -10 39 
-10 4 -10 25 2 -10 29 31 -10 
1 41 -10 2 -10 23 -10 34 15 
40 -10 44 41 -10 28 25 3 -10 
-10 -10 -10 16 0 -10 -10 31 27 
40 -10 9 -10 38 -10 37 37 20 
-10 42 34 -10 5 39 -10 47 20 
18 3 26 40 10 -10 42 32 16 
-10 38 46 -10 35 -10 33 23 30 
6 41 30 -10 -10 48 -10 -10 -10 
-10 15 13 42 -10 -10 39 41 29 
-10 -10 2 -10 29 -10 39 12 24 
-10 -10 48 -10 38 -10 22 -10 -10 
-10 22 35 -10 7 36 36 -10 4 
-10 19 35 37 6 -10 35 25 31 
-10 33 -10 -10 16 33 -10 -10 35 
3 15 32 -10 -10 6 36 -10 23 
11 9 35 1 -10 30 -10 -10 -10 
4 4 -10 13 33 -10 -10 -10 40 
15 29 44 32 -10 -10 33 -10 -10 
8 3 36 -10 -10 42 -10 -10 -10 
-10 -10 -10 5 -10 38 -10 8 -10 
-10 46 48 -10 49 4 -10 44 -10 
-10 -10 39 19 46 8 44 -10 38 
-10 14 -10 28 27 -10 36 33 23 
-10 -10 -10 -10 44 -10 23 33 -10 
36 36 -10 5 -10 13 -10 47 1 
39 -10 42 34 -10 47 43 30 9 
7 -10 19 -10 42 7 -10 -10 22 
-10 -10 36 -10 20 39 -10 42 -10 
27 11 7 47 20 -10 11 43 -10 
45 35 2 45 -10 -10 14 -10 20 
9 -10 18 -10 6 5 13 17 42 
49 29 20 -10 -10 34 7 -10 -10 
26 -10 40 -10 36 -10 40 4 16 
-10 -10 48 6 16 -10 -10 43 49 
22 33 14 43 32 -10 43 18 10 
23 8 -10 -10 -10 22 43 44 21 
25 -10 41 -10 -10 1 -10 48 -10 
0 42 2 -10 8 8 -10 0 -10 
26 14 -10 -10 33 11 38 27 8 
40 -10 -10 -10 18 11 -10 -10 5 
-10 25 34 24 44 12 -10 -10 5 
8 49 -10 41 -10 33 21 9 -10 
-10 -10 24 -10 5 -10 0 1 11 
41 25 41 48 41 6 -10 1 -10 
25 17 8 -10 8 -10 42 -10 -10 
13 -10 11 -10 -10 44 27 -10 -10 
46 33 33 -10 26 36 -10 7 -10 
7 38 -10 28 -10 -10 23 12 -10 
35 -10 37 -10 -10 25 35 -10 -10 
42 24 32 38 15 28 -10 43 44 
-10 28 48 -10 45 9 -10 -10 42 
14 7 -10 44 -10 -10 29 26 9 
29 -10 -10 31 -10 -10 -10 47 -10 
-10 -10 18 -10 -10 -10 -10 47 -10 
-10 -10 12 43 -10 38 -10 -10 -10 
23 -10 0 -10 0 -10 44 40 -10 
13 4 20 47 42 -10 -10 44 43 
13 22 40 36 -10 21 -10 12 -10 
43 -10 39 23 -10 16 -10 -10 -10 
-10 1 -10 -10 28 32 1 19 -10 
-10 24 -10 17 45 -10 -10 26 -10 
17 45 22 32 3 39 20 35 -10 
-10 39 -10 37 3 -10 46 18 -10 
12 10 18 47 -10 8 29 41 8 
8 14 2 43 -10 27 8 41 -10 
44 5 16 0 31 -10 6 -10 -10 
18 10 -10 -10 42 -10 34 -10 -10 
10 -10 25 -10 9 40 24 13 -10 
26 -10 30 10 -10 17 -10 49 -10 
-10 -10 -10 7 -10 -10 -10 3 -10 
-10 -10 -10 -10 -10 -10 44 -10 6 
-10 4 -10 24 -10 -10 -10 -10 -10 
11 43 -10 -10 38 -10 -10 -10 36 
46 26 13 21 49 8 -10 27 7 
26 45 22 -10 -10 11 32 17 37 
43 -10 20 -10 -10 -10 22 14 -10 
10 48 -10 40 16 32 -10 32 4 
31 4 -10 48 36 -10 -10 26 -10 
49 13 19 -10 22 -10 -10 28 29 
29 -10 -10 5 -10 36 -10 11 -10 
19 49 13 0 11 -10 23 4 34 
39 -10 34 12 44 -10 48 4 -10 
15 35 -10 27 -10 -10 12 21 36 
33 -10 43 0 -10 -10 37 33 -10 
24 13 44 -10 47 34 15 36 41 
-10 -10 -10 46 -10 -10 20 26 -10 
21 47 14 -10 13 5 -10 23 38 
-10 -10 28 1 16 -10 10 19 -10 
-10 -10 -10 -10 28 40 18 35 -10 
-10 12 -10 44 9 10 24 23 4 
18 -10 26 13 5 25 -10 40 21 
36 35 -10 -10 45 -10 21 -10 -10 
45 -10 42 -10 47 2 6 4 21 
42 4 -10 2 -10 -10 49 -10 28 
49 35 -10 42 -10 -10 3 43 31 
-10 -10 26 -10 -10 -10 46 37 -10 
18 25 -10 -10 10 45 26 3 25 
-10 -10 27 -10 42 41 7 19 35 
-10 -10 15 18 12 18 -10 11 -10 
14 -10 7 7 -10 29 -10 11 -10 
-10 -10 12 17 0 49 -10 30 -10 
12 -10 -10 -10 13 -10 15 19 19 
7 45 -10 47 39 -10 17 -10 24 
23 16 -10 -10 21 -10 -10 0 36 
36 24 -10 -10 -10 -10 -10 49 25 
-10 17 -10 33 -10 33 18 40 8 
42 1 49 1 10 -10 4 35 -10 
30 -10 -10 44 -10 36 -10 -10 14 
40 35 21 -10 -10 2 -10 -10 -10 
-10 49 -10 -10 49 42 -10 1 25 
14 16 -10 48 -10 28 -10 27 31 
-10 -10 1 9 23 -10 8 -10 -10 
-10 47 15 -10 19 38 -10 29 28 
16 -10 26 0 -10 -10 7 45 24 
10 20 -10 49 0 -10 -10 2 4 
12 2 27 1 -10 8 18 4 -10 
42 37 17 39 -10 30 1 -10 -10 
17 28 21 31 3 8 26 2 15 
-10 1 -10 19 3 -10 -10 33 49 
-10 24 21 0 31 -10 26 20 -10 
-10 16 8 -10 -10 -10 35 47 40 
-10 -10 37 2 16 6 47 -10 -10 
-10 15 21 -10 41 18 -10 -10 -10 
20 21 -10 -10 9 -10 42 39 0 
37 9 -10 -10 28 -10 15 34 -10 
47 35 49 21 8 -10 38 46 -10 
43 -10 38 -10 -10 23 3 -10 17 
-10 -10 -10 -10 42 33 4 8 2 
-10 -10 28 -10 2 -10 9 10 7 
2 31 -10 -10 -10 -10 -10 -10 24 
42 25 37 -10 -10 20 26 -10 -10 
-10 36 5 30 42 38 20 -10 35 
-10 -10 42 46 0 4 24 -10 -10 
49 8 6 -10 10 -10 -10 -10 -10 
-10 43 -10 -10 -10 45 35 27 -10 
-10 5 -10 -10 -10 8 5 1 46 
-10 -10 -10 18 13 2 -10 46 -10 
13 25 -10 12 39 -10 39 -10 -10 
37 3 8 -10 22 45 30 -10 -10 
-10 30 38 17 32 -10 49 -10 16 
3 19 2 -10 16 -10 43 -10 23 
-10 -10 38 -10 4 21 11 8 -10 
-10 -10 -10 12 -10 8 31 9 -10 
27 -10 27 39 -10 14 -10 32 42 
-10 -10 31 33 -10 21 42 -10 -10 
48 31 -10 13 -10 3 -10 -10 13 
-10 21 5 -10 30 8 4 44 -10 
7 -10 9 1 1 8 32 -10 28 
-10 4 -10 -10 49 -10 5 20 42 
32 -10 48 45 39 8 -10 -10 -10 
-10 11 31 34 -10 46 45 -10 -10 
7 20 -10 30 -10 -10 -10 -10 29 
48 -10 -10 25 -10 8 21 -10 -10 
4 -10 44 -10 45 -10 3 -10 33 
-10 1 46 -10 26 42 45 30 -10 
32 12 12 -10 6 -10 -10 41 6 
-10 43 42 29 4 -10 4 42 -10 
1 26 4 19 -10 14 29 29 38 
28 43 -10 17 4 24 -10 37 -10 
27 15 19 -10 -10 38 -10 40 7 
12 6 -10 36 34 2 -10 41 18 
-10 24 -10 -10 -10 30 -10 -10 -10 
35 -10 -10 -10 -10 -10 2 46 32 
-10 -10 5 16 21 -10 2 5 6 
-10 -10 2 -10 -10 33 -10 -10 38 
11 28 31 13 -10 22 1 -10 32 
30 -10 -10 -10 32 -10 12 11 -10 
-10 24 14 13 -10 -10 -10 -10 -10 
23 -10 30 -10 -10 30 41 -10 -10 
-10 33 -10 10 18 -10 27 33 9 
12 -10 33 22 22 3 26 44 -10 
-10 40 46 12 47 31 -10 -10 44 
-10 -10 25 -10 -10 -10 6 -10 -10 
-10 -10 -10 -10 -10 24 -10 27 46 
7 -10 12 -10 27 26 6 -10 14 
34 30 36 30 -10 13 21 -10 10 
10 -10 -10 -10 14 23 0 -10 36 
13 -10 40 24 -10 22 30 5 -10 
16 43 33 40 43 28 6 5 31 
1 1 -10 39 -10 -10 -10 37 48 
29 16 36 48 44 22 15 -10 40 
38 42 4 14 -10 -10 8 -10 -10 
32 49 -10 26 -10 15 -10 -10 29 
-10 2 11 -10 -10 -10 -10 32 -10 
26 -10 -10 -10 27 8 22 -10 16 
-10 -10 36 -10 -10 -10 -10 -10 -10 
39 24 18 -10 -10 -10 2 -10 33 
-10 31 29 49 -10 1 42 18 20 
30 -10 -10 5 -10 45 44 -10 -10 
32 -10 -10 19 27 19 -10 38 18 
21 -10 11 33 -10 -10 34 -10 45 
10 9 10 -10 -10 45 3 26 -10 
18 -10 -10 41 16 -10 -10 -10 5 
-10 -10 27 31 2 2 -10 19 -10 
29 -10 -10 49 -10 -10 -10 17 46 
36 32 -10 -10 3 -10 -10 -10 -10 
15 47 19 0 -10 11 18 49 10 
38 36 -10 -10 -10 -10 27 41 46 
48 -10 10 15 -10 2 12 -10 13 
1 -10 -10 -10 12 29 14 16 2 
45 9 39 -10 -10 -10 25 15 34 
-10 29 -10 29 -10 -10 22 44 -10 
-10 13 -10 -10 48 35 -10 -10 -10 
-10 10 11 -10 -10 -10 48 0 -10 
40 -10 39 39 37 15 -10 31 -10 
-10 -10 44 -10 19 5 14 -10 -10 